# vtk DataFile Version 4.0
vtk output
ASCII
DATASET UNSTRUCTURED_GRID
POINTS 251 float
0.0000000e+00 0.0000000e+00 0.0000000e+00 
2.5000000e+01 0.0000000e+00 0.0000000e+00 
1.0000000e-01 0.0000000e+00 0.0000000e+00 
2.0000000e-01 0.0000000e+00 0.0000000e+00 
3.0000001e-01 0.0000000e+00 0.0000000e+00 
4.0000001e-01 0.0000000e+00 0.0000000e+00 
5.0000000e-01 0.0000000e+00 0.0000000e+00 
6.0000002e-01 0.0000000e+00 0.0000000e+00 
6.9999999e-01 0.0000000e+00 0.0000000e+00 
8.0000001e-01 0.0000000e+00 0.0000000e+00 
8.9999998e-01 0.0000000e+00 0.0000000e+00 
1.0000000e+00 0.0000000e+00 0.0000000e+00 
1.1000000e+00 0.0000000e+00 0.0000000e+00 
1.2000000e+00 0.0000000e+00 0.0000000e+00 
1.3000000e+00 0.0000000e+00 0.0000000e+00 
1.4000000e+00 0.0000000e+00 0.0000000e+00 
1.5000000e+00 0.0000000e+00 0.0000000e+00 
1.6000000e+00 0.0000000e+00 0.0000000e+00 
1.7000000e+00 0.0000000e+00 0.0000000e+00 
1.8000000e+00 0.0000000e+00 0.0000000e+00 
1.9000000e+00 0.0000000e+00 0.0000000e+00 
2.0000000e+00 0.0000000e+00 0.0000000e+00 
2.0999999e+00 0.0000000e+00 0.0000000e+00 
2.2000000e+00 0.0000000e+00 0.0000000e+00 
2.3000000e+00 0.0000000e+00 0.0000000e+00 
2.4000001e+00 0.0000000e+00 0.0000000e+00 
2.5000000e+00 0.0000000e+00 0.0000000e+00 
2.5999999e+00 0.0000000e+00 0.0000000e+00 
2.7000000e+00 0.0000000e+00 0.0000000e+00 
2.8000000e+00 0.0000000e+00 0.0000000e+00 
2.9000001e+00 0.0000000e+00 0.0000000e+00 
3.0000000e+00 0.0000000e+00 0.0000000e+00 
3.0999999e+00 0.0000000e+00 0.0000000e+00 
3.2000000e+00 0.0000000e+00 0.0000000e+00 
3.3000000e+00 0.0000000e+00 0.0000000e+00 
3.4000001e+00 0.0000000e+00 0.0000000e+00 
3.5000000e+00 0.0000000e+00 0.0000000e+00 
3.5999999e+00 0.0000000e+00 0.0000000e+00 
3.7000000e+00 0.0000000e+00 0.0000000e+00 
3.8000000e+00 0.0000000e+00 0.0000000e+00 
3.9000001e+00 0.0000000e+00 0.0000000e+00 
4.0000000e+00 0.0000000e+00 0.0000000e+00 
4.0999999e+00 0.0000000e+00 0.0000000e+00 
4.1999998e+00 0.0000000e+00 0.0000000e+00 
4.3000002e+00 0.0000000e+00 0.0000000e+00 
4.4000001e+00 0.0000000e+00 0.0000000e+00 
4.5000000e+00 0.0000000e+00 0.0000000e+00 
4.5999999e+00 0.0000000e+00 0.0000000e+00 
4.6999998e+00 0.0000000e+00 0.0000000e+00 
4.8000002e+00 0.0000000e+00 0.0000000e+00 
4.9000001e+00 0.0000000e+00 0.0000000e+00 
5.0000000e+00 0.0000000e+00 0.0000000e+00 
5.0999999e+00 0.0000000e+00 0.0000000e+00 
5.1999998e+00 0.0000000e+00 0.0000000e+00 
5.3000002e+00 0.0000000e+00 0.0000000e+00 
5.4000001e+00 0.0000000e+00 0.0000000e+00 
5.5000000e+00 0.0000000e+00 0.0000000e+00 
5.5999999e+00 0.0000000e+00 0.0000000e+00 
5.6999998e+00 0.0000000e+00 0.0000000e+00 
5.8000002e+00 0.0000000e+00 0.0000000e+00 
5.9000001e+00 0.0000000e+00 0.0000000e+00 
6.0000000e+00 0.0000000e+00 0.0000000e+00 
6.0999999e+00 0.0000000e+00 0.0000000e+00 
6.1999998e+00 0.0000000e+00 0.0000000e+00 
6.3000002e+00 0.0000000e+00 0.0000000e+00 
6.4000001e+00 0.0000000e+00 0.0000000e+00 
6.5000000e+00 0.0000000e+00 0.0000000e+00 
6.5999999e+00 0.0000000e+00 0.0000000e+00 
6.6999998e+00 0.0000000e+00 0.0000000e+00 
6.8000002e+00 0.0000000e+00 0.0000000e+00 
6.9000001e+00 0.0000000e+00 0.0000000e+00 
7.0000000e+00 0.0000000e+00 0.0000000e+00 
7.0999999e+00 0.0000000e+00 0.0000000e+00 
7.1999998e+00 0.0000000e+00 0.0000000e+00 
7.3000002e+00 0.0000000e+00 0.0000000e+00 
7.4000001e+00 0.0000000e+00 0.0000000e+00 
7.5000000e+00 0.0000000e+00 0.0000000e+00 
7.5999999e+00 0.0000000e+00 0.0000000e+00 
7.6999998e+00 0.0000000e+00 0.0000000e+00 
7.8000002e+00 0.0000000e+00 0.0000000e+00 
7.9000001e+00 0.0000000e+00 0.0000000e+00 
8.0000000e+00 0.0000000e+00 0.0000000e+00 
8.1000004e+00 0.0000000e+00 0.0000000e+00 
8.1999998e+00 0.0000000e+00 0.0000000e+00 
8.3000002e+00 0.0000000e+00 0.0000000e+00 
8.3999996e+00 0.0000000e+00 0.0000000e+00 
8.5000000e+00 0.0000000e+00 0.0000000e+00 
8.6000004e+00 0.0000000e+00 0.0000000e+00 
8.6999998e+00 0.0000000e+00 0.0000000e+00 
8.8000002e+00 0.0000000e+00 0.0000000e+00 
8.8999996e+00 0.0000000e+00 0.0000000e+00 
9.0000000e+00 0.0000000e+00 0.0000000e+00 
9.1000004e+00 0.0000000e+00 0.0000000e+00 
9.1999998e+00 0.0000000e+00 0.0000000e+00 
9.3000002e+00 0.0000000e+00 0.0000000e+00 
9.3999996e+00 0.0000000e+00 0.0000000e+00 
9.5000000e+00 0.0000000e+00 0.0000000e+00 
9.6000004e+00 0.0000000e+00 0.0000000e+00 
9.6999998e+00 0.0000000e+00 0.0000000e+00 
9.8000002e+00 0.0000000e+00 0.0000000e+00 
9.8999996e+00 0.0000000e+00 0.0000000e+00 
1.0000000e+01 0.0000000e+00 0.0000000e+00 
1.0100000e+01 0.0000000e+00 0.0000000e+00 
1.0200000e+01 0.0000000e+00 0.0000000e+00 
1.0300000e+01 0.0000000e+00 0.0000000e+00 
1.0400000e+01 0.0000000e+00 0.0000000e+00 
1.0500000e+01 0.0000000e+00 0.0000000e+00 
1.0600000e+01 0.0000000e+00 0.0000000e+00 
1.0700000e+01 0.0000000e+00 0.0000000e+00 
1.0800000e+01 0.0000000e+00 0.0000000e+00 
1.0900000e+01 0.0000000e+00 0.0000000e+00 
1.1000000e+01 0.0000000e+00 0.0000000e+00 
1.1100000e+01 0.0000000e+00 0.0000000e+00 
1.1200000e+01 0.0000000e+00 0.0000000e+00 
1.1300000e+01 0.0000000e+00 0.0000000e+00 
1.1400000e+01 0.0000000e+00 0.0000000e+00 
1.1500000e+01 0.0000000e+00 0.0000000e+00 
1.1600000e+01 0.0000000e+00 0.0000000e+00 
1.1700000e+01 0.0000000e+00 0.0000000e+00 
1.1800000e+01 0.0000000e+00 0.0000000e+00 
1.1900000e+01 0.0000000e+00 0.0000000e+00 
1.2000000e+01 0.0000000e+00 0.0000000e+00 
1.2100000e+01 0.0000000e+00 0.0000000e+00 
1.2200000e+01 0.0000000e+00 0.0000000e+00 
1.2300000e+01 0.0000000e+00 0.0000000e+00 
1.2400000e+01 0.0000000e+00 0.0000000e+00 
1.2500000e+01 0.0000000e+00 0.0000000e+00 
1.2600000e+01 0.0000000e+00 0.0000000e+00 
1.2700000e+01 0.0000000e+00 0.0000000e+00 
1.2800000e+01 0.0000000e+00 0.0000000e+00 
1.2900000e+01 0.0000000e+00 0.0000000e+00 
1.3000000e+01 0.0000000e+00 0.0000000e+00 
1.3100000e+01 0.0000000e+00 0.0000000e+00 
1.3200000e+01 0.0000000e+00 0.0000000e+00 
1.3300000e+01 0.0000000e+00 0.0000000e+00 
1.3400000e+01 0.0000000e+00 0.0000000e+00 
1.3500000e+01 0.0000000e+00 0.0000000e+00 
1.3600000e+01 0.0000000e+00 0.0000000e+00 
1.3700000e+01 0.0000000e+00 0.0000000e+00 
1.3800000e+01 0.0000000e+00 0.0000000e+00 
1.3900000e+01 0.0000000e+00 0.0000000e+00 
1.4000000e+01 0.0000000e+00 0.0000000e+00 
1.4100000e+01 0.0000000e+00 0.0000000e+00 
1.4200000e+01 0.0000000e+00 0.0000000e+00 
1.4300000e+01 0.0000000e+00 0.0000000e+00 
1.4400000e+01 0.0000000e+00 0.0000000e+00 
1.4500000e+01 0.0000000e+00 0.0000000e+00 
1.4600000e+01 0.0000000e+00 0.0000000e+00 
1.4700000e+01 0.0000000e+00 0.0000000e+00 
1.4800000e+01 0.0000000e+00 0.0000000e+00 
1.4900000e+01 0.0000000e+00 0.0000000e+00 
1.5000000e+01 0.0000000e+00 0.0000000e+00 
1.5100000e+01 0.0000000e+00 0.0000000e+00 
1.5200000e+01 0.0000000e+00 0.0000000e+00 
1.5300000e+01 0.0000000e+00 0.0000000e+00 
1.5400000e+01 0.0000000e+00 0.0000000e+00 
1.5500000e+01 0.0000000e+00 0.0000000e+00 
1.5600000e+01 0.0000000e+00 0.0000000e+00 
1.5700000e+01 0.0000000e+00 0.0000000e+00 
1.5800000e+01 0.0000000e+00 0.0000000e+00 
1.5900000e+01 0.0000000e+00 0.0000000e+00 
1.6000000e+01 0.0000000e+00 0.0000000e+00 
1.6100000e+01 0.0000000e+00 0.0000000e+00 
1.6200001e+01 0.0000000e+00 0.0000000e+00 
1.6299999e+01 0.0000000e+00 0.0000000e+00 
1.6400000e+01 0.0000000e+00 0.0000000e+00 
1.6500000e+01 0.0000000e+00 0.0000000e+00 
1.6600000e+01 0.0000000e+00 0.0000000e+00 
1.6700001e+01 0.0000000e+00 0.0000000e+00 
1.6799999e+01 0.0000000e+00 0.0000000e+00 
1.6900000e+01 0.0000000e+00 0.0000000e+00 
1.7000000e+01 0.0000000e+00 0.0000000e+00 
1.7100000e+01 0.0000000e+00 0.0000000e+00 
1.7200001e+01 0.0000000e+00 0.0000000e+00 
1.7299999e+01 0.0000000e+00 0.0000000e+00 
1.7400000e+01 0.0000000e+00 0.0000000e+00 
1.7500000e+01 0.0000000e+00 0.0000000e+00 
1.7600000e+01 0.0000000e+00 0.0000000e+00 
1.7700001e+01 0.0000000e+00 0.0000000e+00 
1.7799999e+01 0.0000000e+00 0.0000000e+00 
1.7900000e+01 0.0000000e+00 0.0000000e+00 
1.8000000e+01 0.0000000e+00 0.0000000e+00 
1.8100000e+01 0.0000000e+00 0.0000000e+00 
1.8200001e+01 0.0000000e+00 0.0000000e+00 
1.8299999e+01 0.0000000e+00 0.0000000e+00 
1.8400000e+01 0.0000000e+00 0.0000000e+00 
1.8500000e+01 0.0000000e+00 0.0000000e+00 
1.8600000e+01 0.0000000e+00 0.0000000e+00 
1.8700001e+01 0.0000000e+00 0.0000000e+00 
1.8799999e+01 0.0000000e+00 0.0000000e+00 
1.8900000e+01 0.0000000e+00 0.0000000e+00 
1.9000000e+01 0.0000000e+00 0.0000000e+00 
1.9100000e+01 0.0000000e+00 0.0000000e+00 
1.9200001e+01 0.0000000e+00 0.0000000e+00 
1.9299999e+01 0.0000000e+00 0.0000000e+00 
1.9400000e+01 0.0000000e+00 0.0000000e+00 
1.9500000e+01 0.0000000e+00 0.0000000e+00 
1.9600000e+01 0.0000000e+00 0.0000000e+00 
1.9700001e+01 0.0000000e+00 0.0000000e+00 
1.9799999e+01 0.0000000e+00 0.0000000e+00 
1.9900000e+01 0.0000000e+00 0.0000000e+00 
2.0000000e+01 0.0000000e+00 0.0000000e+00 
2.0100000e+01 0.0000000e+00 0.0000000e+00 
2.0200001e+01 0.0000000e+00 0.0000000e+00 
2.0299999e+01 0.0000000e+00 0.0000000e+00 
2.0400000e+01 0.0000000e+00 0.0000000e+00 
2.0500000e+01 0.0000000e+00 0.0000000e+00 
2.0600000e+01 0.0000000e+00 0.0000000e+00 
2.0700001e+01 0.0000000e+00 0.0000000e+00 
2.0799999e+01 0.0000000e+00 0.0000000e+00 
2.0900000e+01 0.0000000e+00 0.0000000e+00 
2.1000000e+01 0.0000000e+00 0.0000000e+00 
2.1100000e+01 0.0000000e+00 0.0000000e+00 
2.1200001e+01 0.0000000e+00 0.0000000e+00 
2.1299999e+01 0.0000000e+00 0.0000000e+00 
2.1400000e+01 0.0000000e+00 0.0000000e+00 
2.1500000e+01 0.0000000e+00 0.0000000e+00 
2.1600000e+01 0.0000000e+00 0.0000000e+00 
2.1700001e+01 0.0000000e+00 0.0000000e+00 
2.1799999e+01 0.0000000e+00 0.0000000e+00 
2.1900000e+01 0.0000000e+00 0.0000000e+00 
2.2000000e+01 0.0000000e+00 0.0000000e+00 
2.2100000e+01 0.0000000e+00 0.0000000e+00 
2.2200001e+01 0.0000000e+00 0.0000000e+00 
2.2299999e+01 0.0000000e+00 0.0000000e+00 
2.2400000e+01 0.0000000e+00 0.0000000e+00 
2.2500000e+01 0.0000000e+00 0.0000000e+00 
2.2600000e+01 0.0000000e+00 0.0000000e+00 
2.2700001e+01 0.0000000e+00 0.0000000e+00 
2.2799999e+01 0.0000000e+00 0.0000000e+00 
2.2900000e+01 0.0000000e+00 0.0000000e+00 
2.3000000e+01 0.0000000e+00 0.0000000e+00 
2.3100000e+01 0.0000000e+00 0.0000000e+00 
2.3200001e+01 0.0000000e+00 0.0000000e+00 
2.3299999e+01 0.0000000e+00 0.0000000e+00 
2.3400000e+01 0.0000000e+00 0.0000000e+00 
2.3500000e+01 0.0000000e+00 0.0000000e+00 
2.3600000e+01 0.0000000e+00 0.0000000e+00 
2.3700001e+01 0.0000000e+00 0.0000000e+00 
2.3799999e+01 0.0000000e+00 0.0000000e+00 
2.3900000e+01 0.0000000e+00 0.0000000e+00 
2.4000000e+01 0.0000000e+00 0.0000000e+00 
2.4100000e+01 0.0000000e+00 0.0000000e+00 
2.4200001e+01 0.0000000e+00 0.0000000e+00 
2.4299999e+01 0.0000000e+00 0.0000000e+00 
2.4400000e+01 0.0000000e+00 0.0000000e+00 
2.4500000e+01 0.0000000e+00 0.0000000e+00 
2.4600000e+01 0.0000000e+00 0.0000000e+00 
2.4700001e+01 0.0000000e+00 0.0000000e+00 
2.4799999e+01 0.0000000e+00 0.0000000e+00 
2.4900000e+01 0.0000000e+00 0.0000000e+00 

CELLS 250 750
2 0 2
2 2 3
2 3 4
2 4 5
2 5 6
2 6 7
2 7 8
2 8 9
2 9 10
2 10 11
2 11 12
2 12 13
2 13 14
2 14 15
2 15 16
2 16 17
2 17 18
2 18 19
2 19 20
2 20 21
2 21 22
2 22 23
2 23 24
2 24 25
2 25 26
2 26 27
2 27 28
2 28 29
2 29 30
2 30 31
2 31 32
2 32 33
2 33 34
2 34 35
2 35 36
2 36 37
2 37 38
2 38 39
2 39 40
2 40 41
2 41 42
2 42 43
2 43 44
2 44 45
2 45 46
2 46 47
2 47 48
2 48 49
2 49 50
2 50 51
2 51 52
2 52 53
2 53 54
2 54 55
2 55 56
2 56 57
2 57 58
2 58 59
2 59 60
2 60 61
2 61 62
2 62 63
2 63 64
2 64 65
2 65 66
2 66 67
2 67 68
2 68 69
2 69 70
2 70 71
2 71 72
2 72 73
2 73 74
2 74 75
2 75 76
2 76 77
2 77 78
2 78 79
2 79 80
2 80 81
2 81 82
2 82 83
2 83 84
2 84 85
2 85 86
2 86 87
2 87 88
2 88 89
2 89 90
2 90 91
2 91 92
2 92 93
2 93 94
2 94 95
2 95 96
2 96 97
2 97 98
2 98 99
2 99 100
2 100 101
2 101 102
2 102 103
2 103 104
2 104 105
2 105 106
2 106 107
2 107 108
2 108 109
2 109 110
2 110 111
2 111 112
2 112 113
2 113 114
2 114 115
2 115 116
2 116 117
2 117 118
2 118 119
2 119 120
2 120 121
2 121 122
2 122 123
2 123 124
2 124 125
2 125 126
2 126 127
2 127 128
2 128 129
2 129 130
2 130 131
2 131 132
2 132 133
2 133 134
2 134 135
2 135 136
2 136 137
2 137 138
2 138 139
2 139 140
2 140 141
2 141 142
2 142 143
2 143 144
2 144 145
2 145 146
2 146 147
2 147 148
2 148 149
2 149 150
2 150 151
2 151 152
2 152 153
2 153 154
2 154 155
2 155 156
2 156 157
2 157 158
2 158 159
2 159 160
2 160 161
2 161 162
2 162 163
2 163 164
2 164 165
2 165 166
2 166 167
2 167 168
2 168 169
2 169 170
2 170 171
2 171 172
2 172 173
2 173 174
2 174 175
2 175 176
2 176 177
2 177 178
2 178 179
2 179 180
2 180 181
2 181 182
2 182 183
2 183 184
2 184 185
2 185 186
2 186 187
2 187 188
2 188 189
2 189 190
2 190 191
2 191 192
2 192 193
2 193 194
2 194 195
2 195 196
2 196 197
2 197 198
2 198 199
2 199 200
2 200 201
2 201 202
2 202 203
2 203 204
2 204 205
2 205 206
2 206 207
2 207 208
2 208 209
2 209 210
2 210 211
2 211 212
2 212 213
2 213 214
2 214 215
2 215 216
2 216 217
2 217 218
2 218 219
2 219 220
2 220 221
2 221 222
2 222 223
2 223 224
2 224 225
2 225 226
2 226 227
2 227 228
2 228 229
2 229 230
2 230 231
2 231 232
2 232 233
2 233 234
2 234 235
2 235 236
2 236 237
2 237 238
2 238 239
2 239 240
2 240 241
2 241 242
2 242 243
2 243 244
2 244 245
2 245 246
2 246 247
2 247 248
2 248 249
2 249 250
2 250 1

CELL_TYPES 250
3
3
3
3
3
3
3
3
3
3
3
3
3
3
3
3
3
3
3
3
3
3
3
3
3
3
3
3
3
3
3
3
3
3
3
3
3
3
3
3
3
3
3
3
3
3
3
3
3
3
3
3
3
3
3
3
3
3
3
3
3
3
3
3
3
3
3
3
3
3
3
3
3
3
3
3
3
3
3
3
3
3
3
3
3
3
3
3
3
3
3
3
3
3
3
3
3
3
3
3
3
3
3
3
3
3
3
3
3
3
3
3
3
3
3
3
3
3
3
3
3
3
3
3
3
3
3
3
3
3
3
3
3
3
3
3
3
3
3
3
3
3
3
3
3
3
3
3
3
3
3
3
3
3
3
3
3
3
3
3
3
3
3
3
3
3
3
3
3
3
3
3
3
3
3
3
3
3
3
3
3
3
3
3
3
3
3
3
3
3
3
3
3
3
3
3
3
3
3
3
3
3
3
3
3
3
3
3
3
3
3
3
3
3
3
3
3
3
3
3
3
3
3
3
3
3
3
3
3
3
3
3
3
3
3
3
3
3
3
3
3
3
3
3
3
3
3
3
3
3
POINT_DATA 251
FIELD FieldData 1
DISPLACEMENT 3 251  float
0.0000000e+00 0.0000000e+00 0.0000000e+00 
0.0000000e+00 0.0000000e+00 0.0000000e+00 
0.0000000e+00 -1.0328835e-04 0.0000000e+00 
0.0000000e+00 -2.0656719e-04 0.0000000e+00 
0.0000000e+00 -3.0982698e-04 0.0000000e+00 
0.0000000e+00 -4.1305824e-04 0.0000000e+00 
0.0000000e+00 -5.1625143e-04 0.0000000e+00 
0.0000000e+00 -6.1939703e-04 0.0000000e+00 
0.0000000e+00 -7.2248554e-04 0.0000000e+00 
0.0000000e+00 -8.2550739e-04 0.0000000e+00 
0.0000000e+00 -9.2845311e-04 0.0000000e+00 
0.0000000e+00 -1.0313132e-03 0.0000000e+00 
0.0000000e+00 -1.1340780e-03 0.0000000e+00 
0.0000000e+00 -1.2367382e-03 0.0000000e+00 
0.0000000e+00 -1.3392841e-03 0.0000000e+00 
0.0000000e+00 -1.4417062e-03 0.0000000e+00 
0.0000000e+00 -1.5439949e-03 0.0000000e+00 
0.0000000e+00 -1.6461408e-03 0.0000000e+00 
0.0000000e+00 -1.7481343e-03 0.0000000e+00 
0.0000000e+00 -1.8499658e-03 0.0000000e+00 
0.0000000e+00 -1.9516258e-03 0.0000000e+00 
0.0000000e+00 -2.0531048e-03 0.0000000e+00 
0.0000000e+00 -2.1543931e-03 0.0000000e+00 
0.0000000e+00 -2.2554812e-03 0.0000000e+00 
0.0000000e+00 -2.3563595e-03 0.0000000e+00 
0.0000000e+00 -2.4570185e-03 0.0000000e+00 
0.0000000e+00 -2.5574486e-03 0.0000000e+00 
0.0000000e+00 -2.6576403e-03 0.0000000e+00 
0.0000000e+00 -2.7575837e-03 0.0000000e+00 
0.0000000e+00 -2.8572695e-03 0.0000000e+00 
0.0000000e+00 -2.9566882e-03 0.0000000e+00 
0.0000000e+00 -3.0558298e-03 0.0000000e+00 
0.0000000e+00 -3.1546848e-03 0.0000000e+00 
0.0000000e+00 -3.2532439e-03 0.0000000e+00 
0.0000000e+00 -3.3514970e-03 0.0000000e+00 
0.0000000e+00 -3.4494349e-03 0.0000000e+00 
0.0000000e+00 -3.5470475e-03 0.0000000e+00 
0.0000000e+00 -3.6443255e-03 0.0000000e+00 
0.0000000e+00 -3.7412592e-03 0.0000000e+00 
0.0000000e+00 -3.8378390e-03 0.0000000e+00 
0.0000000e+00 -3.9340546e-03 0.0000000e+00 
0.0000000e+00 -4.0298975e-03 0.0000000e+00 
0.0000000e+00 -4.1253567e-03 0.0000000e+00 
0.0000000e+00 -4.2204238e-03 0.0000000e+00 
0.0000000e+00 -4.3150880e-03 0.0000000e+00 
0.0000000e+00 -4.4093397e-03 0.0000000e+00 
0.0000000e+00 -4.5031700e-03 0.0000000e+00 
0.0000000e+00 -4.5965682e-03 0.0000000e+00 
0.0000000e+00 -4.6895253e-03 0.0000000e+00 
0.0000000e+00 -4.7820313e-03 0.0000000e+00 
0.0000000e+00 -4.8740758e-03 0.0000000e+00 
0.0000000e+00 -4.9656499e-03 0.0000000e+00 
0.0000000e+00 -5.0567440e-03 0.0000000e+00 
0.0000000e+00 -5.1473472e-03 0.0000000e+00 
0.0000000e+00 -5.2374504e-03 0.0000000e+00 
0.0000000e+00 -5.3270436e-03 0.0000000e+00 
0.0000000e+00 -5.4161171e-03 0.0000000e+00 
0.0000000e+00 -5.5046612e-03 0.0000000e+00 
0.0000000e+00 -5.5926656e-03 0.0000000e+00 
0.0000000e+00 -5.6801206e-03 0.0000000e+00 
0.0000000e+00 -5.7670167e-03 0.0000000e+00 
0.0000000e+00 -5.8533438e-03 0.0000000e+00 
0.0000000e+00 -5.9390916e-03 0.0000000e+00 
0.0000000e+00 -6.0242503e-03 0.0000000e+00 
0.0000000e+00 -6.1088107e-03 0.0000000e+00 
0.0000000e+00 -6.1927619e-03 0.0000000e+00 
0.0000000e+00 -6.2760948e-03 0.0000000e+00 
0.0000000e+00 -6.3587986e-03 0.0000000e+00 
0.0000000e+00 -6.4408639e-03 0.0000000e+00 
0.0000000e+00 -6.5222806e-03 0.0000000e+00 
0.0000000e+00 -6.6030389e-03 0.0000000e+00 
0.0000000e+00 -6.6831284e-03 0.0000000e+00 
0.0000000e+00 -6.7625390e-03 0.0000000e+00 
0.0000000e+00 -6.8412609e-03 0.0000000e+00 
0.0000000e+00 -6.9192844e-03 0.0000000e+00 
0.0000000e+00 -6.9965986e-03 0.0000000e+00 
0.0000000e+00 -7.0731943e-03 0.0000000e+00 
0.0000000e+00 -7.1490607e-03 0.0000000e+00 
0.0000000e+00 -7.2241877e-03 0.0000000e+00 
0.0000000e+00 -7.2985659e-03 0.0000000e+00 
0.0000000e+00 -7.3721842e-03 0.0000000e+00 
0.0000000e+00 -7.4450332e-03 0.0000000e+00 
0.0000000e+00 -7.5171026e-03 0.0000000e+00 
0.0000000e+00 -7.5883819e-03 0.0000000e+00 
0.0000000e+00 -7.6588611e-03 0.0000000e+00 
0.0000000e+00 -7.7285296e-03 0.0000000e+00 
0.0000000e+00 -7.7973781e-03 0.0000000e+00 
0.0000000e+00 -7.8653954e-03 0.0000000e+00 
0.0000000e+00 -7.9325717e-03 0.0000000e+00 
0.0000000e+00 -7.9988968e-03 0.0000000e+00 
0.0000000e+00 -8.0643604e-03 0.0000000e+00 
0.0000000e+00 -8.1289513e-03 0.0000000e+00 
0.0000000e+00 -8.1926603e-03 0.0000000e+00 
0.0000000e+00 -8.2554771e-03 0.0000000e+00 
0.0000000e+00 -8.3173905e-03 0.0000000e+00 
0.0000000e+00 -8.3783912e-03 0.0000000e+00 
0.0000000e+00 -8.4384680e-03 0.0000000e+00 
0.0000000e+00 -8.4976098e-03 0.0000000e+00 
0.0000000e+00 -8.5558081e-03 0.0000000e+00 
0.0000000e+00 -8.6130509e-03 0.0000000e+00 
0.0000000e+00 -8.6693289e-03 0.0000000e+00 
0.0000000e+00 -8.7246308e-03 0.0000000e+00 
0.0000000e+00 -8.7789465e-03 0.0000000e+00 
0.0000000e+00 -8.8322656e-03 0.0000000e+00 
0.0000000e+00 -8.8845771e-03 0.0000000e+00 
0.0000000e+00 -8.9358706e-03 0.0000000e+00 
0.0000000e+00 -8.9861359e-03 0.0000000e+00 
0.0000000e+00 -9.0353619e-03 0.0000000e+00 
0.0000000e+00 -9.0835392e-03 0.0000000e+00 
0.0000000e+00 -9.1306558e-03 0.0000000e+00 
0.0000000e+00 -9.1767022e-03 0.0000000e+00 
0.0000000e+00 -9.2216674e-03 0.0000000e+00 
0.0000000e+00 -9.2655402e-03 0.0000000e+00 
0.0000000e+00 -9.3083102e-03 0.0000000e+00 
0.0000000e+00 -9.3499674e-03 0.0000000e+00 
0.0000000e+00 -9.3905004e-03 0.0000000e+00 
0.0000000e+00 -9.4298990e-03 0.0000000e+00 
0.0000000e+00 -9.4681531e-03 0.0000000e+00 
0.0000000e+00 -9.5052496e-03 0.0000000e+00 
0.0000000e+00 -9.5411800e-03 0.0000000e+00 
0.0000000e+00 -9.5759332e-03 0.0000000e+00 
0.0000000e+00 -9.6094981e-03 0.0000000e+00 
0.0000000e+00 -9.6418625e-03 0.0000000e+00 
0.0000000e+00 -9.6730180e-03 0.0000000e+00 
0.0000000e+00 -9.7029526e-03 0.0000000e+00 
0.0000000e+00 -9.7316559e-03 0.0000000e+00 
0.0000000e+00 -9.7591160e-03 0.0000000e+00 
0.0000000e+00 -9.7853234e-03 0.0000000e+00 
0.0000000e+00 -9.8102661e-03 0.0000000e+00 
0.0000000e+00 -9.8339338e-03 0.0000000e+00 
0.0000000e+00 -9.8563153e-03 0.0000000e+00 
0.0000000e+00 -9.8773995e-03 0.0000000e+00 
0.0000000e+00 -9.8971762e-03 0.0000000e+00 
0.0000000e+00 -9.9156341e-03 0.0000000e+00 
0.0000000e+00 -9.9327620e-03 0.0000000e+00 
0.0000000e+00 -9.9485489e-03 0.0000000e+00 
0.0000000e+00 -9.9629834e-03 0.0000000e+00 
0.0000000e+00 -9.9760555e-03 0.0000000e+00 
0.0000000e+00 -9.9877538e-03 0.0000000e+00 
0.0000000e+00 -9.9980664e-03 0.0000000e+00 
0.0000000e+00 -1.0006984e-02 0.0000000e+00 
0.0000000e+00 -1.0014493e-02 0.0000000e+00 
0.0000000e+00 -1.0020585e-02 0.0000000e+00 
0.0000000e+00 -1.0025246e-02 0.0000000e+00 
0.0000000e+00 -1.0028468e-02 0.0000000e+00 
0.0000000e+00 -1.0030237e-02 0.0000000e+00 
0.0000000e+00 -1.0030544e-02 0.0000000e+00 
0.0000000e+00 -1.0029376e-02 0.0000000e+00 
0.0000000e+00 -1.0026724e-02 0.0000000e+00 
0.0000000e+00 -1.0022576e-02 0.0000000e+00 
0.0000000e+00 -1.0016919e-02 0.0000000e+00 
0.0000000e+00 -1.0009743e-02 0.0000000e+00 
0.0000000e+00 -1.0001038e-02 0.0000000e+00 
0.0000000e+00 -9.9907918e-03 0.0000000e+00 
0.0000000e+00 -9.9789919e-03 0.0000000e+00 
0.0000000e+00 -9.9656284e-03 0.0000000e+00 
0.0000000e+00 -9.9506900e-03 0.0000000e+00 
0.0000000e+00 -9.9341646e-03 0.0000000e+00 
0.0000000e+00 -9.9160420e-03 0.0000000e+00 
0.0000000e+00 -9.8963100e-03 0.0000000e+00 
0.0000000e+00 -9.8749576e-03 0.0000000e+00 
0.0000000e+00 -9.8519726e-03 0.0000000e+00 
0.0000000e+00 -9.8273447e-03 0.0000000e+00 
0.0000000e+00 -9.8010628e-03 0.0000000e+00 
0.0000000e+00 -9.7731138e-03 0.0000000e+00 
0.0000000e+00 -9.7434884e-03 0.0000000e+00 
0.0000000e+00 -9.7121736e-03 0.0000000e+00 
0.0000000e+00 -9.6791582e-03 0.0000000e+00 
0.0000000e+00 -9.6444311e-03 0.0000000e+00 
0.0000000e+00 -9.6079810e-03 0.0000000e+00 
0.0000000e+00 -9.5697967e-03 0.0000000e+00 
0.0000000e+00 -9.5298653e-03 0.0000000e+00 
0.0000000e+00 -9.4881766e-03 0.0000000e+00 
0.0000000e+00 -9.4447192e-03 0.0000000e+00 
0.0000000e+00 -9.3994802e-03 0.0000000e+00 
0.0000000e+00 -9.3524503e-03 0.0000000e+00 
0.0000000e+00 -9.3036154e-03 0.0000000e+00 
0.0000000e+00 -9.2529664e-03 0.0000000e+00 
0.0000000e+00 -9.2004901e-03 0.0000000e+00 
0.0000000e+00 -9.1461744e-03 0.0000000e+00 
0.0000000e+00 -9.0900101e-03 0.0000000e+00 
0.0000000e+00 -9.0319840e-03 0.0000000e+00 
0.0000000e+00 -8.9720841e-03 0.0000000e+00 
0.0000000e+00 -8.9103002e-03 0.0000000e+00 
0.0000000e+00 -8.8466192e-03 0.0000000e+00 
0.0000000e+00 -8.7810308e-03 0.0000000e+00 
0.0000000e+00 -8.7135229e-03 0.0000000e+00 
0.0000000e+00 -8.6440835e-03 0.0000000e+00 
0.0000000e+00 -8.5727014e-03 0.0000000e+00 
0.0000000e+00 -8.4993653e-03 0.0000000e+00 
0.0000000e+00 -8.4240623e-03 0.0000000e+00 
0.0000000e+00 -8.3467811e-03 0.0000000e+00 
0.0000000e+00 -8.2675116e-03 0.0000000e+00 
0.0000000e+00 -8.1862397e-03 0.0000000e+00 
0.0000000e+00 -8.1029553e-03 0.0000000e+00 
0.0000000e+00 -8.0176461e-03 0.0000000e+00 
0.0000000e+00 -7.9303011e-03 0.0000000e+00 
0.0000000e+00 -7.8409081e-03 0.0000000e+00 
0.0000000e+00 -7.7494560e-03 0.0000000e+00 
0.0000000e+00 -7.6559312e-03 0.0000000e+00 
0.0000000e+00 -7.5603230e-03 0.0000000e+00 
0.0000000e+00 -7.4626207e-03 0.0000000e+00 
0.0000000e+00 -7.3628123e-03 0.0000000e+00 
0.0000000e+00 -7.2608856e-03 0.0000000e+00 
0.0000000e+00 -7.1568280e-03 0.0000000e+00 
0.0000000e+00 -7.0506274e-03 0.0000000e+00 
0.0000000e+00 -6.9422731e-03 0.0000000e+00 
0.0000000e+00 -6.8317554e-03 0.0000000e+00 
0.0000000e+00 -6.7190616e-03 0.0000000e+00 
0.0000000e+00 -6.6041779e-03 0.0000000e+00 
0.0000000e+00 -6.4870911e-03 0.0000000e+00 
0.0000000e+00 -6.3677905e-03 0.0000000e+00 
0.0000000e+00 -6.2462674e-03 0.0000000e+00 
0.0000000e+00 -6.1225123e-03 0.0000000e+00 
0.0000000e+00 -5.9965099e-03 0.0000000e+00 
0.0000000e+00 -5.8682445e-03 0.0000000e+00 
0.0000000e+00 -5.7377019e-03 0.0000000e+00 
0.0000000e+00 -5.6048762e-03 0.0000000e+00 
0.0000000e+00 -5.4697623e-03 0.0000000e+00 
0.0000000e+00 -5.3323489e-03 0.0000000e+00 
0.0000000e+00 -5.1926146e-03 0.0000000e+00 
0.0000000e+00 -5.0505376e-03 0.0000000e+00 
0.0000000e+00 -4.9061095e-03 0.0000000e+00 
0.0000000e+00 -4.7593350e-03 0.0000000e+00 
0.0000000e+00 -4.6102237e-03 0.0000000e+00 
0.0000000e+00 -4.4588363e-03 0.0000000e+00 
0.0000000e+00 -4.3052570e-03 0.0000000e+00 
0.0000000e+00 -4.1495701e-03 0.0000000e+00 
0.0000000e+00 -3.9918600e-03 0.0000000e+00 
0.0000000e+00 -3.8322110e-03 0.0000000e+00 
0.0000000e+00 -3.6707071e-03 0.0000000e+00 
0.0000000e+00 -3.5074330e-03 0.0000000e+00 
0.0000000e+00 -3.3424727e-03 0.0000000e+00 
0.0000000e+00 -3.1759106e-03 0.0000000e+00 
0.0000000e+00 -3.0078311e-03 0.0000000e+00 
0.0000000e+00 -2.8383185e-03 0.0000000e+00 
0.0000000e+00 -2.6674571e-03 0.0000000e+00 
0.0000000e+00 -2.4953310e-03 0.0000000e+00 
0.0000000e+00 -2.3220247e-03 0.0000000e+00 
0.0000000e+00 -2.1476226e-03 0.0000000e+00 
0.0000000e+00 -1.9722087e-03 0.0000000e+00 
0.0000000e+00 -1.7958676e-03 0.0000000e+00 
0.0000000e+00 -1.6186835e-03 0.0000000e+00 
0.0000000e+00 -1.4407405e-03 0.0000000e+00 
0.0000000e+00 -1.2621233e-03 0.0000000e+00 
0.0000000e+00 -1.0829159e-03 0.0000000e+00 
0.0000000e+00 -9.0320269e-04 0.0000000e+00 
0.0000000e+00 -7.2306796e-04 0.0000000e+00 
0.0000000e+00 -5.4259604e-04 0.0000000e+00 
0.0000000e+00 -3.6187118e-04 0.0000000e+00 
0.0000000e+00 -1.8097775e-04 0.0000000e+00 
CELL_DATA 250
FIELD FieldData 0
