# vtk DataFile Version 4.0
vtk output
ASCII
DATASET UNSTRUCTURED_GRID
POINTS 251 float
0.0000000e+00 0.0000000e+00 0.0000000e+00 
2.5000000e+01 0.0000000e+00 0.0000000e+00 
1.0000000e-01 0.0000000e+00 0.0000000e+00 
2.0000000e-01 0.0000000e+00 0.0000000e+00 
3.0000001e-01 0.0000000e+00 0.0000000e+00 
4.0000001e-01 0.0000000e+00 0.0000000e+00 
5.0000000e-01 0.0000000e+00 0.0000000e+00 
6.0000002e-01 0.0000000e+00 0.0000000e+00 
6.9999999e-01 0.0000000e+00 0.0000000e+00 
8.0000001e-01 0.0000000e+00 0.0000000e+00 
8.9999998e-01 0.0000000e+00 0.0000000e+00 
1.0000000e+00 0.0000000e+00 0.0000000e+00 
1.1000000e+00 0.0000000e+00 0.0000000e+00 
1.2000000e+00 0.0000000e+00 0.0000000e+00 
1.3000000e+00 0.0000000e+00 0.0000000e+00 
1.4000000e+00 0.0000000e+00 0.0000000e+00 
1.5000000e+00 0.0000000e+00 0.0000000e+00 
1.6000000e+00 0.0000000e+00 0.0000000e+00 
1.7000000e+00 0.0000000e+00 0.0000000e+00 
1.8000000e+00 0.0000000e+00 0.0000000e+00 
1.9000000e+00 0.0000000e+00 0.0000000e+00 
2.0000000e+00 0.0000000e+00 0.0000000e+00 
2.0999999e+00 0.0000000e+00 0.0000000e+00 
2.2000000e+00 0.0000000e+00 0.0000000e+00 
2.3000000e+00 0.0000000e+00 0.0000000e+00 
2.4000001e+00 0.0000000e+00 0.0000000e+00 
2.5000000e+00 0.0000000e+00 0.0000000e+00 
2.5999999e+00 0.0000000e+00 0.0000000e+00 
2.7000000e+00 0.0000000e+00 0.0000000e+00 
2.8000000e+00 0.0000000e+00 0.0000000e+00 
2.9000001e+00 0.0000000e+00 0.0000000e+00 
3.0000000e+00 0.0000000e+00 0.0000000e+00 
3.0999999e+00 0.0000000e+00 0.0000000e+00 
3.2000000e+00 0.0000000e+00 0.0000000e+00 
3.3000000e+00 0.0000000e+00 0.0000000e+00 
3.4000001e+00 0.0000000e+00 0.0000000e+00 
3.5000000e+00 0.0000000e+00 0.0000000e+00 
3.5999999e+00 0.0000000e+00 0.0000000e+00 
3.7000000e+00 0.0000000e+00 0.0000000e+00 
3.8000000e+00 0.0000000e+00 0.0000000e+00 
3.9000001e+00 0.0000000e+00 0.0000000e+00 
4.0000000e+00 0.0000000e+00 0.0000000e+00 
4.0999999e+00 0.0000000e+00 0.0000000e+00 
4.1999998e+00 0.0000000e+00 0.0000000e+00 
4.3000002e+00 0.0000000e+00 0.0000000e+00 
4.4000001e+00 0.0000000e+00 0.0000000e+00 
4.5000000e+00 0.0000000e+00 0.0000000e+00 
4.5999999e+00 0.0000000e+00 0.0000000e+00 
4.6999998e+00 0.0000000e+00 0.0000000e+00 
4.8000002e+00 0.0000000e+00 0.0000000e+00 
4.9000001e+00 0.0000000e+00 0.0000000e+00 
5.0000000e+00 0.0000000e+00 0.0000000e+00 
5.0999999e+00 0.0000000e+00 0.0000000e+00 
5.1999998e+00 0.0000000e+00 0.0000000e+00 
5.3000002e+00 0.0000000e+00 0.0000000e+00 
5.4000001e+00 0.0000000e+00 0.0000000e+00 
5.5000000e+00 0.0000000e+00 0.0000000e+00 
5.5999999e+00 0.0000000e+00 0.0000000e+00 
5.6999998e+00 0.0000000e+00 0.0000000e+00 
5.8000002e+00 0.0000000e+00 0.0000000e+00 
5.9000001e+00 0.0000000e+00 0.0000000e+00 
6.0000000e+00 0.0000000e+00 0.0000000e+00 
6.0999999e+00 0.0000000e+00 0.0000000e+00 
6.1999998e+00 0.0000000e+00 0.0000000e+00 
6.3000002e+00 0.0000000e+00 0.0000000e+00 
6.4000001e+00 0.0000000e+00 0.0000000e+00 
6.5000000e+00 0.0000000e+00 0.0000000e+00 
6.5999999e+00 0.0000000e+00 0.0000000e+00 
6.6999998e+00 0.0000000e+00 0.0000000e+00 
6.8000002e+00 0.0000000e+00 0.0000000e+00 
6.9000001e+00 0.0000000e+00 0.0000000e+00 
7.0000000e+00 0.0000000e+00 0.0000000e+00 
7.0999999e+00 0.0000000e+00 0.0000000e+00 
7.1999998e+00 0.0000000e+00 0.0000000e+00 
7.3000002e+00 0.0000000e+00 0.0000000e+00 
7.4000001e+00 0.0000000e+00 0.0000000e+00 
7.5000000e+00 0.0000000e+00 0.0000000e+00 
7.5999999e+00 0.0000000e+00 0.0000000e+00 
7.6999998e+00 0.0000000e+00 0.0000000e+00 
7.8000002e+00 0.0000000e+00 0.0000000e+00 
7.9000001e+00 0.0000000e+00 0.0000000e+00 
8.0000000e+00 0.0000000e+00 0.0000000e+00 
8.1000004e+00 0.0000000e+00 0.0000000e+00 
8.1999998e+00 0.0000000e+00 0.0000000e+00 
8.3000002e+00 0.0000000e+00 0.0000000e+00 
8.3999996e+00 0.0000000e+00 0.0000000e+00 
8.5000000e+00 0.0000000e+00 0.0000000e+00 
8.6000004e+00 0.0000000e+00 0.0000000e+00 
8.6999998e+00 0.0000000e+00 0.0000000e+00 
8.8000002e+00 0.0000000e+00 0.0000000e+00 
8.8999996e+00 0.0000000e+00 0.0000000e+00 
9.0000000e+00 0.0000000e+00 0.0000000e+00 
9.1000004e+00 0.0000000e+00 0.0000000e+00 
9.1999998e+00 0.0000000e+00 0.0000000e+00 
9.3000002e+00 0.0000000e+00 0.0000000e+00 
9.3999996e+00 0.0000000e+00 0.0000000e+00 
9.5000000e+00 0.0000000e+00 0.0000000e+00 
9.6000004e+00 0.0000000e+00 0.0000000e+00 
9.6999998e+00 0.0000000e+00 0.0000000e+00 
9.8000002e+00 0.0000000e+00 0.0000000e+00 
9.8999996e+00 0.0000000e+00 0.0000000e+00 
1.0000000e+01 0.0000000e+00 0.0000000e+00 
1.0100000e+01 0.0000000e+00 0.0000000e+00 
1.0200000e+01 0.0000000e+00 0.0000000e+00 
1.0300000e+01 0.0000000e+00 0.0000000e+00 
1.0400000e+01 0.0000000e+00 0.0000000e+00 
1.0500000e+01 0.0000000e+00 0.0000000e+00 
1.0600000e+01 0.0000000e+00 0.0000000e+00 
1.0700000e+01 0.0000000e+00 0.0000000e+00 
1.0800000e+01 0.0000000e+00 0.0000000e+00 
1.0900000e+01 0.0000000e+00 0.0000000e+00 
1.1000000e+01 0.0000000e+00 0.0000000e+00 
1.1100000e+01 0.0000000e+00 0.0000000e+00 
1.1200000e+01 0.0000000e+00 0.0000000e+00 
1.1300000e+01 0.0000000e+00 0.0000000e+00 
1.1400000e+01 0.0000000e+00 0.0000000e+00 
1.1500000e+01 0.0000000e+00 0.0000000e+00 
1.1600000e+01 0.0000000e+00 0.0000000e+00 
1.1700000e+01 0.0000000e+00 0.0000000e+00 
1.1800000e+01 0.0000000e+00 0.0000000e+00 
1.1900000e+01 0.0000000e+00 0.0000000e+00 
1.2000000e+01 0.0000000e+00 0.0000000e+00 
1.2100000e+01 0.0000000e+00 0.0000000e+00 
1.2200000e+01 0.0000000e+00 0.0000000e+00 
1.2300000e+01 0.0000000e+00 0.0000000e+00 
1.2400000e+01 0.0000000e+00 0.0000000e+00 
1.2500000e+01 0.0000000e+00 0.0000000e+00 
1.2600000e+01 0.0000000e+00 0.0000000e+00 
1.2700000e+01 0.0000000e+00 0.0000000e+00 
1.2800000e+01 0.0000000e+00 0.0000000e+00 
1.2900000e+01 0.0000000e+00 0.0000000e+00 
1.3000000e+01 0.0000000e+00 0.0000000e+00 
1.3100000e+01 0.0000000e+00 0.0000000e+00 
1.3200000e+01 0.0000000e+00 0.0000000e+00 
1.3300000e+01 0.0000000e+00 0.0000000e+00 
1.3400000e+01 0.0000000e+00 0.0000000e+00 
1.3500000e+01 0.0000000e+00 0.0000000e+00 
1.3600000e+01 0.0000000e+00 0.0000000e+00 
1.3700000e+01 0.0000000e+00 0.0000000e+00 
1.3800000e+01 0.0000000e+00 0.0000000e+00 
1.3900000e+01 0.0000000e+00 0.0000000e+00 
1.4000000e+01 0.0000000e+00 0.0000000e+00 
1.4100000e+01 0.0000000e+00 0.0000000e+00 
1.4200000e+01 0.0000000e+00 0.0000000e+00 
1.4300000e+01 0.0000000e+00 0.0000000e+00 
1.4400000e+01 0.0000000e+00 0.0000000e+00 
1.4500000e+01 0.0000000e+00 0.0000000e+00 
1.4600000e+01 0.0000000e+00 0.0000000e+00 
1.4700000e+01 0.0000000e+00 0.0000000e+00 
1.4800000e+01 0.0000000e+00 0.0000000e+00 
1.4900000e+01 0.0000000e+00 0.0000000e+00 
1.5000000e+01 0.0000000e+00 0.0000000e+00 
1.5100000e+01 0.0000000e+00 0.0000000e+00 
1.5200000e+01 0.0000000e+00 0.0000000e+00 
1.5300000e+01 0.0000000e+00 0.0000000e+00 
1.5400000e+01 0.0000000e+00 0.0000000e+00 
1.5500000e+01 0.0000000e+00 0.0000000e+00 
1.5600000e+01 0.0000000e+00 0.0000000e+00 
1.5700000e+01 0.0000000e+00 0.0000000e+00 
1.5800000e+01 0.0000000e+00 0.0000000e+00 
1.5900000e+01 0.0000000e+00 0.0000000e+00 
1.6000000e+01 0.0000000e+00 0.0000000e+00 
1.6100000e+01 0.0000000e+00 0.0000000e+00 
1.6200001e+01 0.0000000e+00 0.0000000e+00 
1.6299999e+01 0.0000000e+00 0.0000000e+00 
1.6400000e+01 0.0000000e+00 0.0000000e+00 
1.6500000e+01 0.0000000e+00 0.0000000e+00 
1.6600000e+01 0.0000000e+00 0.0000000e+00 
1.6700001e+01 0.0000000e+00 0.0000000e+00 
1.6799999e+01 0.0000000e+00 0.0000000e+00 
1.6900000e+01 0.0000000e+00 0.0000000e+00 
1.7000000e+01 0.0000000e+00 0.0000000e+00 
1.7100000e+01 0.0000000e+00 0.0000000e+00 
1.7200001e+01 0.0000000e+00 0.0000000e+00 
1.7299999e+01 0.0000000e+00 0.0000000e+00 
1.7400000e+01 0.0000000e+00 0.0000000e+00 
1.7500000e+01 0.0000000e+00 0.0000000e+00 
1.7600000e+01 0.0000000e+00 0.0000000e+00 
1.7700001e+01 0.0000000e+00 0.0000000e+00 
1.7799999e+01 0.0000000e+00 0.0000000e+00 
1.7900000e+01 0.0000000e+00 0.0000000e+00 
1.8000000e+01 0.0000000e+00 0.0000000e+00 
1.8100000e+01 0.0000000e+00 0.0000000e+00 
1.8200001e+01 0.0000000e+00 0.0000000e+00 
1.8299999e+01 0.0000000e+00 0.0000000e+00 
1.8400000e+01 0.0000000e+00 0.0000000e+00 
1.8500000e+01 0.0000000e+00 0.0000000e+00 
1.8600000e+01 0.0000000e+00 0.0000000e+00 
1.8700001e+01 0.0000000e+00 0.0000000e+00 
1.8799999e+01 0.0000000e+00 0.0000000e+00 
1.8900000e+01 0.0000000e+00 0.0000000e+00 
1.9000000e+01 0.0000000e+00 0.0000000e+00 
1.9100000e+01 0.0000000e+00 0.0000000e+00 
1.9200001e+01 0.0000000e+00 0.0000000e+00 
1.9299999e+01 0.0000000e+00 0.0000000e+00 
1.9400000e+01 0.0000000e+00 0.0000000e+00 
1.9500000e+01 0.0000000e+00 0.0000000e+00 
1.9600000e+01 0.0000000e+00 0.0000000e+00 
1.9700001e+01 0.0000000e+00 0.0000000e+00 
1.9799999e+01 0.0000000e+00 0.0000000e+00 
1.9900000e+01 0.0000000e+00 0.0000000e+00 
2.0000000e+01 0.0000000e+00 0.0000000e+00 
2.0100000e+01 0.0000000e+00 0.0000000e+00 
2.0200001e+01 0.0000000e+00 0.0000000e+00 
2.0299999e+01 0.0000000e+00 0.0000000e+00 
2.0400000e+01 0.0000000e+00 0.0000000e+00 
2.0500000e+01 0.0000000e+00 0.0000000e+00 
2.0600000e+01 0.0000000e+00 0.0000000e+00 
2.0700001e+01 0.0000000e+00 0.0000000e+00 
2.0799999e+01 0.0000000e+00 0.0000000e+00 
2.0900000e+01 0.0000000e+00 0.0000000e+00 
2.1000000e+01 0.0000000e+00 0.0000000e+00 
2.1100000e+01 0.0000000e+00 0.0000000e+00 
2.1200001e+01 0.0000000e+00 0.0000000e+00 
2.1299999e+01 0.0000000e+00 0.0000000e+00 
2.1400000e+01 0.0000000e+00 0.0000000e+00 
2.1500000e+01 0.0000000e+00 0.0000000e+00 
2.1600000e+01 0.0000000e+00 0.0000000e+00 
2.1700001e+01 0.0000000e+00 0.0000000e+00 
2.1799999e+01 0.0000000e+00 0.0000000e+00 
2.1900000e+01 0.0000000e+00 0.0000000e+00 
2.2000000e+01 0.0000000e+00 0.0000000e+00 
2.2100000e+01 0.0000000e+00 0.0000000e+00 
2.2200001e+01 0.0000000e+00 0.0000000e+00 
2.2299999e+01 0.0000000e+00 0.0000000e+00 
2.2400000e+01 0.0000000e+00 0.0000000e+00 
2.2500000e+01 0.0000000e+00 0.0000000e+00 
2.2600000e+01 0.0000000e+00 0.0000000e+00 
2.2700001e+01 0.0000000e+00 0.0000000e+00 
2.2799999e+01 0.0000000e+00 0.0000000e+00 
2.2900000e+01 0.0000000e+00 0.0000000e+00 
2.3000000e+01 0.0000000e+00 0.0000000e+00 
2.3100000e+01 0.0000000e+00 0.0000000e+00 
2.3200001e+01 0.0000000e+00 0.0000000e+00 
2.3299999e+01 0.0000000e+00 0.0000000e+00 
2.3400000e+01 0.0000000e+00 0.0000000e+00 
2.3500000e+01 0.0000000e+00 0.0000000e+00 
2.3600000e+01 0.0000000e+00 0.0000000e+00 
2.3700001e+01 0.0000000e+00 0.0000000e+00 
2.3799999e+01 0.0000000e+00 0.0000000e+00 
2.3900000e+01 0.0000000e+00 0.0000000e+00 
2.4000000e+01 0.0000000e+00 0.0000000e+00 
2.4100000e+01 0.0000000e+00 0.0000000e+00 
2.4200001e+01 0.0000000e+00 0.0000000e+00 
2.4299999e+01 0.0000000e+00 0.0000000e+00 
2.4400000e+01 0.0000000e+00 0.0000000e+00 
2.4500000e+01 0.0000000e+00 0.0000000e+00 
2.4600000e+01 0.0000000e+00 0.0000000e+00 
2.4700001e+01 0.0000000e+00 0.0000000e+00 
2.4799999e+01 0.0000000e+00 0.0000000e+00 
2.4900000e+01 0.0000000e+00 0.0000000e+00 

CELLS 250 750
2 0 2
2 2 3
2 3 4
2 4 5
2 5 6
2 6 7
2 7 8
2 8 9
2 9 10
2 10 11
2 11 12
2 12 13
2 13 14
2 14 15
2 15 16
2 16 17
2 17 18
2 18 19
2 19 20
2 20 21
2 21 22
2 22 23
2 23 24
2 24 25
2 25 26
2 26 27
2 27 28
2 28 29
2 29 30
2 30 31
2 31 32
2 32 33
2 33 34
2 34 35
2 35 36
2 36 37
2 37 38
2 38 39
2 39 40
2 40 41
2 41 42
2 42 43
2 43 44
2 44 45
2 45 46
2 46 47
2 47 48
2 48 49
2 49 50
2 50 51
2 51 52
2 52 53
2 53 54
2 54 55
2 55 56
2 56 57
2 57 58
2 58 59
2 59 60
2 60 61
2 61 62
2 62 63
2 63 64
2 64 65
2 65 66
2 66 67
2 67 68
2 68 69
2 69 70
2 70 71
2 71 72
2 72 73
2 73 74
2 74 75
2 75 76
2 76 77
2 77 78
2 78 79
2 79 80
2 80 81
2 81 82
2 82 83
2 83 84
2 84 85
2 85 86
2 86 87
2 87 88
2 88 89
2 89 90
2 90 91
2 91 92
2 92 93
2 93 94
2 94 95
2 95 96
2 96 97
2 97 98
2 98 99
2 99 100
2 100 101
2 101 102
2 102 103
2 103 104
2 104 105
2 105 106
2 106 107
2 107 108
2 108 109
2 109 110
2 110 111
2 111 112
2 112 113
2 113 114
2 114 115
2 115 116
2 116 117
2 117 118
2 118 119
2 119 120
2 120 121
2 121 122
2 122 123
2 123 124
2 124 125
2 125 126
2 126 127
2 127 128
2 128 129
2 129 130
2 130 131
2 131 132
2 132 133
2 133 134
2 134 135
2 135 136
2 136 137
2 137 138
2 138 139
2 139 140
2 140 141
2 141 142
2 142 143
2 143 144
2 144 145
2 145 146
2 146 147
2 147 148
2 148 149
2 149 150
2 150 151
2 151 152
2 152 153
2 153 154
2 154 155
2 155 156
2 156 157
2 157 158
2 158 159
2 159 160
2 160 161
2 161 162
2 162 163
2 163 164
2 164 165
2 165 166
2 166 167
2 167 168
2 168 169
2 169 170
2 170 171
2 171 172
2 172 173
2 173 174
2 174 175
2 175 176
2 176 177
2 177 178
2 178 179
2 179 180
2 180 181
2 181 182
2 182 183
2 183 184
2 184 185
2 185 186
2 186 187
2 187 188
2 188 189
2 189 190
2 190 191
2 191 192
2 192 193
2 193 194
2 194 195
2 195 196
2 196 197
2 197 198
2 198 199
2 199 200
2 200 201
2 201 202
2 202 203
2 203 204
2 204 205
2 205 206
2 206 207
2 207 208
2 208 209
2 209 210
2 210 211
2 211 212
2 212 213
2 213 214
2 214 215
2 215 216
2 216 217
2 217 218
2 218 219
2 219 220
2 220 221
2 221 222
2 222 223
2 223 224
2 224 225
2 225 226
2 226 227
2 227 228
2 228 229
2 229 230
2 230 231
2 231 232
2 232 233
2 233 234
2 234 235
2 235 236
2 236 237
2 237 238
2 238 239
2 239 240
2 240 241
2 241 242
2 242 243
2 243 244
2 244 245
2 245 246
2 246 247
2 247 248
2 248 249
2 249 250
2 250 1

CELL_TYPES 250
3
3
3
3
3
3
3
3
3
3
3
3
3
3
3
3
3
3
3
3
3
3
3
3
3
3
3
3
3
3
3
3
3
3
3
3
3
3
3
3
3
3
3
3
3
3
3
3
3
3
3
3
3
3
3
3
3
3
3
3
3
3
3
3
3
3
3
3
3
3
3
3
3
3
3
3
3
3
3
3
3
3
3
3
3
3
3
3
3
3
3
3
3
3
3
3
3
3
3
3
3
3
3
3
3
3
3
3
3
3
3
3
3
3
3
3
3
3
3
3
3
3
3
3
3
3
3
3
3
3
3
3
3
3
3
3
3
3
3
3
3
3
3
3
3
3
3
3
3
3
3
3
3
3
3
3
3
3
3
3
3
3
3
3
3
3
3
3
3
3
3
3
3
3
3
3
3
3
3
3
3
3
3
3
3
3
3
3
3
3
3
3
3
3
3
3
3
3
3
3
3
3
3
3
3
3
3
3
3
3
3
3
3
3
3
3
3
3
3
3
3
3
3
3
3
3
3
3
3
3
3
3
3
3
3
3
3
3
3
3
3
3
3
3
3
3
3
3
3
3
POINT_DATA 251
FIELD FieldData 1
DISPLACEMENT 3 251  float
0.0000000e+00 0.0000000e+00 0.0000000e+00 
0.0000000e+00 0.0000000e+00 0.0000000e+00 
0.0000000e+00 -2.2644288e-04 0.0000000e+00 
0.0000000e+00 -4.5286230e-04 0.0000000e+00 
0.0000000e+00 -6.7923480e-04 0.0000000e+00 
0.0000000e+00 -9.0553687e-04 0.0000000e+00 
0.0000000e+00 -1.1317452e-03 0.0000000e+00 
0.0000000e+00 -1.3578362e-03 0.0000000e+00 
0.0000000e+00 -1.5837863e-03 0.0000000e+00 
0.0000000e+00 -1.8095725e-03 0.0000000e+00 
0.0000000e+00 -2.0351708e-03 0.0000000e+00 
0.0000000e+00 -2.2605581e-03 0.0000000e+00 
0.0000000e+00 -2.4857107e-03 0.0000000e+00 
0.0000000e+00 -2.7106053e-03 0.0000000e+00 
0.0000000e+00 -2.9352186e-03 0.0000000e+00 
0.0000000e+00 -3.1595267e-03 0.0000000e+00 
0.0000000e+00 -3.3835068e-03 0.0000000e+00 
0.0000000e+00 -3.6071348e-03 0.0000000e+00 
0.0000000e+00 -3.8303877e-03 0.0000000e+00 
0.0000000e+00 -4.0532420e-03 0.0000000e+00 
0.0000000e+00 -4.2756740e-03 0.0000000e+00 
0.0000000e+00 -4.4976608e-03 0.0000000e+00 
0.0000000e+00 -4.7191782e-03 0.0000000e+00 
0.0000000e+00 -4.9402039e-03 0.0000000e+00 
0.0000000e+00 -5.1607131e-03 0.0000000e+00 
0.0000000e+00 -5.3806836e-03 0.0000000e+00 
0.0000000e+00 -5.6000911e-03 0.0000000e+00 
0.0000000e+00 -5.8189128e-03 0.0000000e+00 
0.0000000e+00 -6.0371254e-03 0.0000000e+00 
0.0000000e+00 -6.2547047e-03 0.0000000e+00 
0.0000000e+00 -6.4716279e-03 0.0000000e+00 
0.0000000e+00 -6.6878716e-03 0.0000000e+00 
0.0000000e+00 -6.9034123e-03 0.0000000e+00 
0.0000000e+00 -7.1182270e-03 0.0000000e+00 
0.0000000e+00 -7.3322915e-03 0.0000000e+00 
0.0000000e+00 -7.5455834e-03 0.0000000e+00 
0.0000000e+00 -7.7580786e-03 0.0000000e+00 
0.0000000e+00 -7.9697547e-03 0.0000000e+00 
0.0000000e+00 -8.1805866e-03 0.0000000e+00 
0.0000000e+00 -8.3905533e-03 0.0000000e+00 
0.0000000e+00 -8.5996296e-03 0.0000000e+00 
0.0000000e+00 -8.8077923e-03 0.0000000e+00 
0.0000000e+00 -9.0150191e-03 0.0000000e+00 
0.0000000e+00 -9.2212865e-03 0.0000000e+00 
0.0000000e+00 -9.4265714e-03 0.0000000e+00 
0.0000000e+00 -9.6308496e-03 0.0000000e+00 
0.0000000e+00 -9.8340977e-03 0.0000000e+00 
0.0000000e+00 -1.0036293e-02 0.0000000e+00 
0.0000000e+00 -1.0237413e-02 0.0000000e+00 
0.0000000e+00 -1.0437434e-02 0.0000000e+00 
0.0000000e+00 -1.0636332e-02 0.0000000e+00 
0.0000000e+00 -1.0834084e-02 0.0000000e+00 
0.0000000e+00 -1.1030667e-02 0.0000000e+00 
0.0000000e+00 -1.1226059e-02 0.0000000e+00 
0.0000000e+00 -1.1420235e-02 0.0000000e+00 
0.0000000e+00 -1.1613172e-02 0.0000000e+00 
0.0000000e+00 -1.1804848e-02 0.0000000e+00 
0.0000000e+00 -1.1995238e-02 0.0000000e+00 
0.0000000e+00 -1.2184321e-02 0.0000000e+00 
0.0000000e+00 -1.2372073e-02 0.0000000e+00 
0.0000000e+00 -1.2558470e-02 0.0000000e+00 
0.0000000e+00 -1.2743489e-02 0.0000000e+00 
0.0000000e+00 -1.2927108e-02 0.0000000e+00 
0.0000000e+00 -1.3109304e-02 0.0000000e+00 
0.0000000e+00 -1.3290053e-02 0.0000000e+00 
0.0000000e+00 -1.3469332e-02 0.0000000e+00 
0.0000000e+00 -1.3647119e-02 0.0000000e+00 
0.0000000e+00 -1.3823389e-02 0.0000000e+00 
0.0000000e+00 -1.3998121e-02 0.0000000e+00 
0.0000000e+00 -1.4171291e-02 0.0000000e+00 
0.0000000e+00 -1.4342875e-02 0.0000000e+00 
0.0000000e+00 -1.4512853e-02 0.0000000e+00 
0.0000000e+00 -1.4681199e-02 0.0000000e+00 
0.0000000e+00 -1.4847891e-02 0.0000000e+00 
0.0000000e+00 -1.5012907e-02 0.0000000e+00 
0.0000000e+00 -1.5176223e-02 0.0000000e+00 
0.0000000e+00 -1.5337816e-02 0.0000000e+00 
0.0000000e+00 -1.5497664e-02 0.0000000e+00 
0.0000000e+00 -1.5655745e-02 0.0000000e+00 
0.0000000e+00 -1.5812032e-02 0.0000000e+00 
0.0000000e+00 -1.5966507e-02 0.0000000e+00 
0.0000000e+00 -1.6119145e-02 0.0000000e+00 
0.0000000e+00 -1.6269922e-02 0.0000000e+00 
0.0000000e+00 -1.6418818e-02 0.0000000e+00 
0.0000000e+00 -1.6565809e-02 0.0000000e+00 
0.0000000e+00 -1.6710870e-02 0.0000000e+00 
0.0000000e+00 -1.6853983e-02 0.0000000e+00 
0.0000000e+00 -1.6995121e-02 0.0000000e+00 
0.0000000e+00 -1.7134262e-02 0.0000000e+00 
0.0000000e+00 -1.7271385e-02 0.0000000e+00 
0.0000000e+00 -1.7406467e-02 0.0000000e+00 
0.0000000e+00 -1.7539484e-02 0.0000000e+00 
0.0000000e+00 -1.7670415e-02 0.0000000e+00 
0.0000000e+00 -1.7799236e-02 0.0000000e+00 
0.0000000e+00 -1.7925926e-02 0.0000000e+00 
0.0000000e+00 -1.8050460e-02 0.0000000e+00 
0.0000000e+00 -1.8172819e-02 0.0000000e+00 
0.0000000e+00 -1.8292977e-02 0.0000000e+00 
0.0000000e+00 -1.8410914e-02 0.0000000e+00 
0.0000000e+00 -1.8526604e-02 0.0000000e+00 
0.0000000e+00 -1.8640030e-02 0.0000000e+00 
0.0000000e+00 -1.8751165e-02 0.0000000e+00 
0.0000000e+00 -1.8859988e-02 0.0000000e+00 
0.0000000e+00 -1.8966477e-02 0.0000000e+00 
0.0000000e+00 -1.9070610e-02 0.0000000e+00 
0.0000000e+00 -1.9172363e-02 0.0000000e+00 
0.0000000e+00 -1.9271716e-02 0.0000000e+00 
0.0000000e+00 -1.9368645e-02 0.0000000e+00 
0.0000000e+00 -1.9463127e-02 0.0000000e+00 
0.0000000e+00 -1.9555142e-02 0.0000000e+00 
0.0000000e+00 -1.9644666e-02 0.0000000e+00 
0.0000000e+00 -1.9731680e-02 0.0000000e+00 
0.0000000e+00 -1.9816156e-02 0.0000000e+00 
0.0000000e+00 -1.9898077e-02 0.0000000e+00 
0.0000000e+00 -1.9977419e-02 0.0000000e+00 
0.0000000e+00 -2.0054160e-02 0.0000000e+00 
0.0000000e+00 -2.0128276e-02 0.0000000e+00 
0.0000000e+00 -2.0199748e-02 0.0000000e+00 
0.0000000e+00 -2.0268554e-02 0.0000000e+00 
0.0000000e+00 -2.0334668e-02 0.0000000e+00 
0.0000000e+00 -2.0398073e-02 0.0000000e+00 
0.0000000e+00 -2.0458745e-02 0.0000000e+00 
0.0000000e+00 -2.0516660e-02 0.0000000e+00 
0.0000000e+00 -2.0571798e-02 0.0000000e+00 
0.0000000e+00 -2.0624138e-02 0.0000000e+00 
0.0000000e+00 -2.0673659e-02 0.0000000e+00 
0.0000000e+00 -2.0720335e-02 0.0000000e+00 
0.0000000e+00 -2.0764146e-02 0.0000000e+00 
0.0000000e+00 -2.0805072e-02 0.0000000e+00 
0.0000000e+00 -2.0843090e-02 0.0000000e+00 
0.0000000e+00 -2.0878179e-02 0.0000000e+00 
0.0000000e+00 -2.0910317e-02 0.0000000e+00 
0.0000000e+00 -2.0939482e-02 0.0000000e+00 
0.0000000e+00 -2.0965651e-02 0.0000000e+00 
0.0000000e+00 -2.0988805e-02 0.0000000e+00 
0.0000000e+00 -2.1008922e-02 0.0000000e+00 
0.0000000e+00 -2.1025978e-02 0.0000000e+00 
0.0000000e+00 -2.1039953e-02 0.0000000e+00 
0.0000000e+00 -2.1050828e-02 0.0000000e+00 
0.0000000e+00 -2.1058578e-02 0.0000000e+00 
0.0000000e+00 -2.1063183e-02 0.0000000e+00 
0.0000000e+00 -2.1064622e-02 0.0000000e+00 
0.0000000e+00 -2.1062873e-02 0.0000000e+00 
0.0000000e+00 -2.1057915e-02 0.0000000e+00 
0.0000000e+00 -2.1049725e-02 0.0000000e+00 
0.0000000e+00 -2.1038285e-02 0.0000000e+00 
0.0000000e+00 -2.1023571e-02 0.0000000e+00 
0.0000000e+00 -2.1005563e-02 0.0000000e+00 
0.0000000e+00 -2.0984240e-02 0.0000000e+00 
0.0000000e+00 -2.0959580e-02 0.0000000e+00 
0.0000000e+00 -2.0931564e-02 0.0000000e+00 
0.0000000e+00 -2.0900168e-02 0.0000000e+00 
0.0000000e+00 -2.0865371e-02 0.0000000e+00 
0.0000000e+00 -2.0827156e-02 0.0000000e+00 
0.0000000e+00 -2.0785498e-02 0.0000000e+00 
0.0000000e+00 -2.0740377e-02 0.0000000e+00 
0.0000000e+00 -2.0691771e-02 0.0000000e+00 
0.0000000e+00 -2.0639662e-02 0.0000000e+00 
0.0000000e+00 -2.0584028e-02 0.0000000e+00 
0.0000000e+00 -2.0524846e-02 0.0000000e+00 
0.0000000e+00 -2.0462098e-02 0.0000000e+00 
0.0000000e+00 -2.0395761e-02 0.0000000e+00 
0.0000000e+00 -2.0325817e-02 0.0000000e+00 
0.0000000e+00 -2.0252243e-02 0.0000000e+00 
0.0000000e+00 -2.0175019e-02 0.0000000e+00 
0.0000000e+00 -2.0094125e-02 0.0000000e+00 
0.0000000e+00 -2.0009538e-02 0.0000000e+00 
0.0000000e+00 -1.9921241e-02 0.0000000e+00 
0.0000000e+00 -1.9829212e-02 0.0000000e+00 
0.0000000e+00 -1.9733429e-02 0.0000000e+00 
0.0000000e+00 -1.9633872e-02 0.0000000e+00 
0.0000000e+00 -1.9530522e-02 0.0000000e+00 
0.0000000e+00 -1.9423356e-02 0.0000000e+00 
0.0000000e+00 -1.9312356e-02 0.0000000e+00 
0.0000000e+00 -1.9197501e-02 0.0000000e+00 
0.0000000e+00 -1.9078773e-02 0.0000000e+00 
0.0000000e+00 -1.8956147e-02 0.0000000e+00 
0.0000000e+00 -1.8829605e-02 0.0000000e+00 
0.0000000e+00 -1.8699124e-02 0.0000000e+00 
0.0000000e+00 -1.8564692e-02 0.0000000e+00 
0.0000000e+00 -1.8426282e-02 0.0000000e+00 
0.0000000e+00 -1.8283876e-02 0.0000000e+00 
0.0000000e+00 -1.8137449e-02 0.0000000e+00 
0.0000000e+00 -1.7986985e-02 0.0000000e+00 
0.0000000e+00 -1.7832464e-02 0.0000000e+00 
0.0000000e+00 -1.7673871e-02 0.0000000e+00 
0.0000000e+00 -1.7511182e-02 0.0000000e+00 
0.0000000e+00 -1.7344372e-02 0.0000000e+00 
0.0000000e+00 -1.7173421e-02 0.0000000e+00 
0.0000000e+00 -1.6998312e-02 0.0000000e+00 
0.0000000e+00 -1.6819030e-02 0.0000000e+00 
0.0000000e+00 -1.6635559e-02 0.0000000e+00 
0.0000000e+00 -1.6447874e-02 0.0000000e+00 
0.0000000e+00 -1.6255941e-02 0.0000000e+00 
0.0000000e+00 -1.6059741e-02 0.0000000e+00 
0.0000000e+00 -1.5859270e-02 0.0000000e+00 
0.0000000e+00 -1.5654525e-02 0.0000000e+00 
0.0000000e+00 -1.5445544e-02 0.0000000e+00 
0.0000000e+00 -1.5232407e-02 0.0000000e+00 
0.0000000e+00 -1.5015187e-02 0.0000000e+00 
0.0000000e+00 -1.4793961e-02 0.0000000e+00 
0.0000000e+00 -1.4568807e-02 0.0000000e+00 
0.0000000e+00 -1.4339800e-02 0.0000000e+00 
0.0000000e+00 -1.4107018e-02 0.0000000e+00 
0.0000000e+00 -1.3870535e-02 0.0000000e+00 
0.0000000e+00 -1.3630431e-02 0.0000000e+00 
0.0000000e+00 -1.3386781e-02 0.0000000e+00 
0.0000000e+00 -1.3139662e-02 0.0000000e+00 
0.0000000e+00 -1.2889151e-02 0.0000000e+00 
0.0000000e+00 -1.2635324e-02 0.0000000e+00 
0.0000000e+00 -1.2378258e-02 0.0000000e+00 
0.0000000e+00 -1.2118030e-02 0.0000000e+00 
0.0000000e+00 -1.1854718e-02 0.0000000e+00 
0.0000000e+00 -1.1588396e-02 0.0000000e+00 
0.0000000e+00 -1.1319143e-02 0.0000000e+00 
0.0000000e+00 -1.1047035e-02 0.0000000e+00 
0.0000000e+00 -1.0772151e-02 0.0000000e+00 
0.0000000e+00 -1.0494565e-02 0.0000000e+00 
0.0000000e+00 -1.0214355e-02 0.0000000e+00 
0.0000000e+00 -9.9315988e-03 0.0000000e+00 
0.0000000e+00 -9.6463729e-03 0.0000000e+00 
0.0000000e+00 -9.3587535e-03 0.0000000e+00 
0.0000000e+00 -9.0688188e-03 0.0000000e+00 
0.0000000e+00 -8.7766442e-03 0.0000000e+00 
0.0000000e+00 -8.4823091e-03 0.0000000e+00 
0.0000000e+00 -8.1858886e-03 0.0000000e+00 
0.0000000e+00 -7.8874612e-03 0.0000000e+00 
0.0000000e+00 -7.5871027e-03 0.0000000e+00 
0.0000000e+00 -7.2848909e-03 0.0000000e+00 
0.0000000e+00 -6.9809030e-03 0.0000000e+00 
0.0000000e+00 -6.6752154e-03 0.0000000e+00 
0.0000000e+00 -6.3679065e-03 0.0000000e+00 
0.0000000e+00 -6.0590524e-03 0.0000000e+00 
0.0000000e+00 -5.7487311e-03 0.0000000e+00 
0.0000000e+00 -5.4370188e-03 0.0000000e+00 
0.0000000e+00 -5.1239934e-03 0.0000000e+00 
0.0000000e+00 -4.8097321e-03 0.0000000e+00 
0.0000000e+00 -4.4943113e-03 0.0000000e+00 
0.0000000e+00 -4.1778097e-03 0.0000000e+00 
0.0000000e+00 -3.8603030e-03 0.0000000e+00 
0.0000000e+00 -3.5418693e-03 0.0000000e+00 
0.0000000e+00 -3.2225859e-03 0.0000000e+00 
0.0000000e+00 -2.9025297e-03 0.0000000e+00 
0.0000000e+00 -2.5817780e-03 0.0000000e+00 
0.0000000e+00 -2.2604079e-03 0.0000000e+00 
0.0000000e+00 -1.9384972e-03 0.0000000e+00 
0.0000000e+00 -1.6161227e-03 0.0000000e+00 
0.0000000e+00 -1.2933618e-03 0.0000000e+00 
0.0000000e+00 -9.7029185e-04 0.0000000e+00 
0.0000000e+00 -6.4699003e-04 0.0000000e+00 
0.0000000e+00 -3.2353366e-04 0.0000000e+00 
CELL_DATA 250
FIELD FieldData 0
