# vtk DataFile Version 4.0
vtk output
ASCII
DATASET UNSTRUCTURED_GRID
POINTS 251 float
0.0000000e+00 0.0000000e+00 0.0000000e+00 
2.5000000e+01 0.0000000e+00 0.0000000e+00 
1.0000000e-01 0.0000000e+00 0.0000000e+00 
2.0000000e-01 0.0000000e+00 0.0000000e+00 
3.0000001e-01 0.0000000e+00 0.0000000e+00 
4.0000001e-01 0.0000000e+00 0.0000000e+00 
5.0000000e-01 0.0000000e+00 0.0000000e+00 
6.0000002e-01 0.0000000e+00 0.0000000e+00 
6.9999999e-01 0.0000000e+00 0.0000000e+00 
8.0000001e-01 0.0000000e+00 0.0000000e+00 
8.9999998e-01 0.0000000e+00 0.0000000e+00 
1.0000000e+00 0.0000000e+00 0.0000000e+00 
1.1000000e+00 0.0000000e+00 0.0000000e+00 
1.2000000e+00 0.0000000e+00 0.0000000e+00 
1.3000000e+00 0.0000000e+00 0.0000000e+00 
1.4000000e+00 0.0000000e+00 0.0000000e+00 
1.5000000e+00 0.0000000e+00 0.0000000e+00 
1.6000000e+00 0.0000000e+00 0.0000000e+00 
1.7000000e+00 0.0000000e+00 0.0000000e+00 
1.8000000e+00 0.0000000e+00 0.0000000e+00 
1.9000000e+00 0.0000000e+00 0.0000000e+00 
2.0000000e+00 0.0000000e+00 0.0000000e+00 
2.0999999e+00 0.0000000e+00 0.0000000e+00 
2.2000000e+00 0.0000000e+00 0.0000000e+00 
2.3000000e+00 0.0000000e+00 0.0000000e+00 
2.4000001e+00 0.0000000e+00 0.0000000e+00 
2.5000000e+00 0.0000000e+00 0.0000000e+00 
2.5999999e+00 0.0000000e+00 0.0000000e+00 
2.7000000e+00 0.0000000e+00 0.0000000e+00 
2.8000000e+00 0.0000000e+00 0.0000000e+00 
2.9000001e+00 0.0000000e+00 0.0000000e+00 
3.0000000e+00 0.0000000e+00 0.0000000e+00 
3.0999999e+00 0.0000000e+00 0.0000000e+00 
3.2000000e+00 0.0000000e+00 0.0000000e+00 
3.3000000e+00 0.0000000e+00 0.0000000e+00 
3.4000001e+00 0.0000000e+00 0.0000000e+00 
3.5000000e+00 0.0000000e+00 0.0000000e+00 
3.5999999e+00 0.0000000e+00 0.0000000e+00 
3.7000000e+00 0.0000000e+00 0.0000000e+00 
3.8000000e+00 0.0000000e+00 0.0000000e+00 
3.9000001e+00 0.0000000e+00 0.0000000e+00 
4.0000000e+00 0.0000000e+00 0.0000000e+00 
4.0999999e+00 0.0000000e+00 0.0000000e+00 
4.1999998e+00 0.0000000e+00 0.0000000e+00 
4.3000002e+00 0.0000000e+00 0.0000000e+00 
4.4000001e+00 0.0000000e+00 0.0000000e+00 
4.5000000e+00 0.0000000e+00 0.0000000e+00 
4.5999999e+00 0.0000000e+00 0.0000000e+00 
4.6999998e+00 0.0000000e+00 0.0000000e+00 
4.8000002e+00 0.0000000e+00 0.0000000e+00 
4.9000001e+00 0.0000000e+00 0.0000000e+00 
5.0000000e+00 0.0000000e+00 0.0000000e+00 
5.0999999e+00 0.0000000e+00 0.0000000e+00 
5.1999998e+00 0.0000000e+00 0.0000000e+00 
5.3000002e+00 0.0000000e+00 0.0000000e+00 
5.4000001e+00 0.0000000e+00 0.0000000e+00 
5.5000000e+00 0.0000000e+00 0.0000000e+00 
5.5999999e+00 0.0000000e+00 0.0000000e+00 
5.6999998e+00 0.0000000e+00 0.0000000e+00 
5.8000002e+00 0.0000000e+00 0.0000000e+00 
5.9000001e+00 0.0000000e+00 0.0000000e+00 
6.0000000e+00 0.0000000e+00 0.0000000e+00 
6.0999999e+00 0.0000000e+00 0.0000000e+00 
6.1999998e+00 0.0000000e+00 0.0000000e+00 
6.3000002e+00 0.0000000e+00 0.0000000e+00 
6.4000001e+00 0.0000000e+00 0.0000000e+00 
6.5000000e+00 0.0000000e+00 0.0000000e+00 
6.5999999e+00 0.0000000e+00 0.0000000e+00 
6.6999998e+00 0.0000000e+00 0.0000000e+00 
6.8000002e+00 0.0000000e+00 0.0000000e+00 
6.9000001e+00 0.0000000e+00 0.0000000e+00 
7.0000000e+00 0.0000000e+00 0.0000000e+00 
7.0999999e+00 0.0000000e+00 0.0000000e+00 
7.1999998e+00 0.0000000e+00 0.0000000e+00 
7.3000002e+00 0.0000000e+00 0.0000000e+00 
7.4000001e+00 0.0000000e+00 0.0000000e+00 
7.5000000e+00 0.0000000e+00 0.0000000e+00 
7.5999999e+00 0.0000000e+00 0.0000000e+00 
7.6999998e+00 0.0000000e+00 0.0000000e+00 
7.8000002e+00 0.0000000e+00 0.0000000e+00 
7.9000001e+00 0.0000000e+00 0.0000000e+00 
8.0000000e+00 0.0000000e+00 0.0000000e+00 
8.1000004e+00 0.0000000e+00 0.0000000e+00 
8.1999998e+00 0.0000000e+00 0.0000000e+00 
8.3000002e+00 0.0000000e+00 0.0000000e+00 
8.3999996e+00 0.0000000e+00 0.0000000e+00 
8.5000000e+00 0.0000000e+00 0.0000000e+00 
8.6000004e+00 0.0000000e+00 0.0000000e+00 
8.6999998e+00 0.0000000e+00 0.0000000e+00 
8.8000002e+00 0.0000000e+00 0.0000000e+00 
8.8999996e+00 0.0000000e+00 0.0000000e+00 
9.0000000e+00 0.0000000e+00 0.0000000e+00 
9.1000004e+00 0.0000000e+00 0.0000000e+00 
9.1999998e+00 0.0000000e+00 0.0000000e+00 
9.3000002e+00 0.0000000e+00 0.0000000e+00 
9.3999996e+00 0.0000000e+00 0.0000000e+00 
9.5000000e+00 0.0000000e+00 0.0000000e+00 
9.6000004e+00 0.0000000e+00 0.0000000e+00 
9.6999998e+00 0.0000000e+00 0.0000000e+00 
9.8000002e+00 0.0000000e+00 0.0000000e+00 
9.8999996e+00 0.0000000e+00 0.0000000e+00 
1.0000000e+01 0.0000000e+00 0.0000000e+00 
1.0100000e+01 0.0000000e+00 0.0000000e+00 
1.0200000e+01 0.0000000e+00 0.0000000e+00 
1.0300000e+01 0.0000000e+00 0.0000000e+00 
1.0400000e+01 0.0000000e+00 0.0000000e+00 
1.0500000e+01 0.0000000e+00 0.0000000e+00 
1.0600000e+01 0.0000000e+00 0.0000000e+00 
1.0700000e+01 0.0000000e+00 0.0000000e+00 
1.0800000e+01 0.0000000e+00 0.0000000e+00 
1.0900000e+01 0.0000000e+00 0.0000000e+00 
1.1000000e+01 0.0000000e+00 0.0000000e+00 
1.1100000e+01 0.0000000e+00 0.0000000e+00 
1.1200000e+01 0.0000000e+00 0.0000000e+00 
1.1300000e+01 0.0000000e+00 0.0000000e+00 
1.1400000e+01 0.0000000e+00 0.0000000e+00 
1.1500000e+01 0.0000000e+00 0.0000000e+00 
1.1600000e+01 0.0000000e+00 0.0000000e+00 
1.1700000e+01 0.0000000e+00 0.0000000e+00 
1.1800000e+01 0.0000000e+00 0.0000000e+00 
1.1900000e+01 0.0000000e+00 0.0000000e+00 
1.2000000e+01 0.0000000e+00 0.0000000e+00 
1.2100000e+01 0.0000000e+00 0.0000000e+00 
1.2200000e+01 0.0000000e+00 0.0000000e+00 
1.2300000e+01 0.0000000e+00 0.0000000e+00 
1.2400000e+01 0.0000000e+00 0.0000000e+00 
1.2500000e+01 0.0000000e+00 0.0000000e+00 
1.2600000e+01 0.0000000e+00 0.0000000e+00 
1.2700000e+01 0.0000000e+00 0.0000000e+00 
1.2800000e+01 0.0000000e+00 0.0000000e+00 
1.2900000e+01 0.0000000e+00 0.0000000e+00 
1.3000000e+01 0.0000000e+00 0.0000000e+00 
1.3100000e+01 0.0000000e+00 0.0000000e+00 
1.3200000e+01 0.0000000e+00 0.0000000e+00 
1.3300000e+01 0.0000000e+00 0.0000000e+00 
1.3400000e+01 0.0000000e+00 0.0000000e+00 
1.3500000e+01 0.0000000e+00 0.0000000e+00 
1.3600000e+01 0.0000000e+00 0.0000000e+00 
1.3700000e+01 0.0000000e+00 0.0000000e+00 
1.3800000e+01 0.0000000e+00 0.0000000e+00 
1.3900000e+01 0.0000000e+00 0.0000000e+00 
1.4000000e+01 0.0000000e+00 0.0000000e+00 
1.4100000e+01 0.0000000e+00 0.0000000e+00 
1.4200000e+01 0.0000000e+00 0.0000000e+00 
1.4300000e+01 0.0000000e+00 0.0000000e+00 
1.4400000e+01 0.0000000e+00 0.0000000e+00 
1.4500000e+01 0.0000000e+00 0.0000000e+00 
1.4600000e+01 0.0000000e+00 0.0000000e+00 
1.4700000e+01 0.0000000e+00 0.0000000e+00 
1.4800000e+01 0.0000000e+00 0.0000000e+00 
1.4900000e+01 0.0000000e+00 0.0000000e+00 
1.5000000e+01 0.0000000e+00 0.0000000e+00 
1.5100000e+01 0.0000000e+00 0.0000000e+00 
1.5200000e+01 0.0000000e+00 0.0000000e+00 
1.5300000e+01 0.0000000e+00 0.0000000e+00 
1.5400000e+01 0.0000000e+00 0.0000000e+00 
1.5500000e+01 0.0000000e+00 0.0000000e+00 
1.5600000e+01 0.0000000e+00 0.0000000e+00 
1.5700000e+01 0.0000000e+00 0.0000000e+00 
1.5800000e+01 0.0000000e+00 0.0000000e+00 
1.5900000e+01 0.0000000e+00 0.0000000e+00 
1.6000000e+01 0.0000000e+00 0.0000000e+00 
1.6100000e+01 0.0000000e+00 0.0000000e+00 
1.6200001e+01 0.0000000e+00 0.0000000e+00 
1.6299999e+01 0.0000000e+00 0.0000000e+00 
1.6400000e+01 0.0000000e+00 0.0000000e+00 
1.6500000e+01 0.0000000e+00 0.0000000e+00 
1.6600000e+01 0.0000000e+00 0.0000000e+00 
1.6700001e+01 0.0000000e+00 0.0000000e+00 
1.6799999e+01 0.0000000e+00 0.0000000e+00 
1.6900000e+01 0.0000000e+00 0.0000000e+00 
1.7000000e+01 0.0000000e+00 0.0000000e+00 
1.7100000e+01 0.0000000e+00 0.0000000e+00 
1.7200001e+01 0.0000000e+00 0.0000000e+00 
1.7299999e+01 0.0000000e+00 0.0000000e+00 
1.7400000e+01 0.0000000e+00 0.0000000e+00 
1.7500000e+01 0.0000000e+00 0.0000000e+00 
1.7600000e+01 0.0000000e+00 0.0000000e+00 
1.7700001e+01 0.0000000e+00 0.0000000e+00 
1.7799999e+01 0.0000000e+00 0.0000000e+00 
1.7900000e+01 0.0000000e+00 0.0000000e+00 
1.8000000e+01 0.0000000e+00 0.0000000e+00 
1.8100000e+01 0.0000000e+00 0.0000000e+00 
1.8200001e+01 0.0000000e+00 0.0000000e+00 
1.8299999e+01 0.0000000e+00 0.0000000e+00 
1.8400000e+01 0.0000000e+00 0.0000000e+00 
1.8500000e+01 0.0000000e+00 0.0000000e+00 
1.8600000e+01 0.0000000e+00 0.0000000e+00 
1.8700001e+01 0.0000000e+00 0.0000000e+00 
1.8799999e+01 0.0000000e+00 0.0000000e+00 
1.8900000e+01 0.0000000e+00 0.0000000e+00 
1.9000000e+01 0.0000000e+00 0.0000000e+00 
1.9100000e+01 0.0000000e+00 0.0000000e+00 
1.9200001e+01 0.0000000e+00 0.0000000e+00 
1.9299999e+01 0.0000000e+00 0.0000000e+00 
1.9400000e+01 0.0000000e+00 0.0000000e+00 
1.9500000e+01 0.0000000e+00 0.0000000e+00 
1.9600000e+01 0.0000000e+00 0.0000000e+00 
1.9700001e+01 0.0000000e+00 0.0000000e+00 
1.9799999e+01 0.0000000e+00 0.0000000e+00 
1.9900000e+01 0.0000000e+00 0.0000000e+00 
2.0000000e+01 0.0000000e+00 0.0000000e+00 
2.0100000e+01 0.0000000e+00 0.0000000e+00 
2.0200001e+01 0.0000000e+00 0.0000000e+00 
2.0299999e+01 0.0000000e+00 0.0000000e+00 
2.0400000e+01 0.0000000e+00 0.0000000e+00 
2.0500000e+01 0.0000000e+00 0.0000000e+00 
2.0600000e+01 0.0000000e+00 0.0000000e+00 
2.0700001e+01 0.0000000e+00 0.0000000e+00 
2.0799999e+01 0.0000000e+00 0.0000000e+00 
2.0900000e+01 0.0000000e+00 0.0000000e+00 
2.1000000e+01 0.0000000e+00 0.0000000e+00 
2.1100000e+01 0.0000000e+00 0.0000000e+00 
2.1200001e+01 0.0000000e+00 0.0000000e+00 
2.1299999e+01 0.0000000e+00 0.0000000e+00 
2.1400000e+01 0.0000000e+00 0.0000000e+00 
2.1500000e+01 0.0000000e+00 0.0000000e+00 
2.1600000e+01 0.0000000e+00 0.0000000e+00 
2.1700001e+01 0.0000000e+00 0.0000000e+00 
2.1799999e+01 0.0000000e+00 0.0000000e+00 
2.1900000e+01 0.0000000e+00 0.0000000e+00 
2.2000000e+01 0.0000000e+00 0.0000000e+00 
2.2100000e+01 0.0000000e+00 0.0000000e+00 
2.2200001e+01 0.0000000e+00 0.0000000e+00 
2.2299999e+01 0.0000000e+00 0.0000000e+00 
2.2400000e+01 0.0000000e+00 0.0000000e+00 
2.2500000e+01 0.0000000e+00 0.0000000e+00 
2.2600000e+01 0.0000000e+00 0.0000000e+00 
2.2700001e+01 0.0000000e+00 0.0000000e+00 
2.2799999e+01 0.0000000e+00 0.0000000e+00 
2.2900000e+01 0.0000000e+00 0.0000000e+00 
2.3000000e+01 0.0000000e+00 0.0000000e+00 
2.3100000e+01 0.0000000e+00 0.0000000e+00 
2.3200001e+01 0.0000000e+00 0.0000000e+00 
2.3299999e+01 0.0000000e+00 0.0000000e+00 
2.3400000e+01 0.0000000e+00 0.0000000e+00 
2.3500000e+01 0.0000000e+00 0.0000000e+00 
2.3600000e+01 0.0000000e+00 0.0000000e+00 
2.3700001e+01 0.0000000e+00 0.0000000e+00 
2.3799999e+01 0.0000000e+00 0.0000000e+00 
2.3900000e+01 0.0000000e+00 0.0000000e+00 
2.4000000e+01 0.0000000e+00 0.0000000e+00 
2.4100000e+01 0.0000000e+00 0.0000000e+00 
2.4200001e+01 0.0000000e+00 0.0000000e+00 
2.4299999e+01 0.0000000e+00 0.0000000e+00 
2.4400000e+01 0.0000000e+00 0.0000000e+00 
2.4500000e+01 0.0000000e+00 0.0000000e+00 
2.4600000e+01 0.0000000e+00 0.0000000e+00 
2.4700001e+01 0.0000000e+00 0.0000000e+00 
2.4799999e+01 0.0000000e+00 0.0000000e+00 
2.4900000e+01 0.0000000e+00 0.0000000e+00 

CELLS 250 750
2 0 2
2 2 3
2 3 4
2 4 5
2 5 6
2 6 7
2 7 8
2 8 9
2 9 10
2 10 11
2 11 12
2 12 13
2 13 14
2 14 15
2 15 16
2 16 17
2 17 18
2 18 19
2 19 20
2 20 21
2 21 22
2 22 23
2 23 24
2 24 25
2 25 26
2 26 27
2 27 28
2 28 29
2 29 30
2 30 31
2 31 32
2 32 33
2 33 34
2 34 35
2 35 36
2 36 37
2 37 38
2 38 39
2 39 40
2 40 41
2 41 42
2 42 43
2 43 44
2 44 45
2 45 46
2 46 47
2 47 48
2 48 49
2 49 50
2 50 51
2 51 52
2 52 53
2 53 54
2 54 55
2 55 56
2 56 57
2 57 58
2 58 59
2 59 60
2 60 61
2 61 62
2 62 63
2 63 64
2 64 65
2 65 66
2 66 67
2 67 68
2 68 69
2 69 70
2 70 71
2 71 72
2 72 73
2 73 74
2 74 75
2 75 76
2 76 77
2 77 78
2 78 79
2 79 80
2 80 81
2 81 82
2 82 83
2 83 84
2 84 85
2 85 86
2 86 87
2 87 88
2 88 89
2 89 90
2 90 91
2 91 92
2 92 93
2 93 94
2 94 95
2 95 96
2 96 97
2 97 98
2 98 99
2 99 100
2 100 101
2 101 102
2 102 103
2 103 104
2 104 105
2 105 106
2 106 107
2 107 108
2 108 109
2 109 110
2 110 111
2 111 112
2 112 113
2 113 114
2 114 115
2 115 116
2 116 117
2 117 118
2 118 119
2 119 120
2 120 121
2 121 122
2 122 123
2 123 124
2 124 125
2 125 126
2 126 127
2 127 128
2 128 129
2 129 130
2 130 131
2 131 132
2 132 133
2 133 134
2 134 135
2 135 136
2 136 137
2 137 138
2 138 139
2 139 140
2 140 141
2 141 142
2 142 143
2 143 144
2 144 145
2 145 146
2 146 147
2 147 148
2 148 149
2 149 150
2 150 151
2 151 152
2 152 153
2 153 154
2 154 155
2 155 156
2 156 157
2 157 158
2 158 159
2 159 160
2 160 161
2 161 162
2 162 163
2 163 164
2 164 165
2 165 166
2 166 167
2 167 168
2 168 169
2 169 170
2 170 171
2 171 172
2 172 173
2 173 174
2 174 175
2 175 176
2 176 177
2 177 178
2 178 179
2 179 180
2 180 181
2 181 182
2 182 183
2 183 184
2 184 185
2 185 186
2 186 187
2 187 188
2 188 189
2 189 190
2 190 191
2 191 192
2 192 193
2 193 194
2 194 195
2 195 196
2 196 197
2 197 198
2 198 199
2 199 200
2 200 201
2 201 202
2 202 203
2 203 204
2 204 205
2 205 206
2 206 207
2 207 208
2 208 209
2 209 210
2 210 211
2 211 212
2 212 213
2 213 214
2 214 215
2 215 216
2 216 217
2 217 218
2 218 219
2 219 220
2 220 221
2 221 222
2 222 223
2 223 224
2 224 225
2 225 226
2 226 227
2 227 228
2 228 229
2 229 230
2 230 231
2 231 232
2 232 233
2 233 234
2 234 235
2 235 236
2 236 237
2 237 238
2 238 239
2 239 240
2 240 241
2 241 242
2 242 243
2 243 244
2 244 245
2 245 246
2 246 247
2 247 248
2 248 249
2 249 250
2 250 1

CELL_TYPES 250
3
3
3
3
3
3
3
3
3
3
3
3
3
3
3
3
3
3
3
3
3
3
3
3
3
3
3
3
3
3
3
3
3
3
3
3
3
3
3
3
3
3
3
3
3
3
3
3
3
3
3
3
3
3
3
3
3
3
3
3
3
3
3
3
3
3
3
3
3
3
3
3
3
3
3
3
3
3
3
3
3
3
3
3
3
3
3
3
3
3
3
3
3
3
3
3
3
3
3
3
3
3
3
3
3
3
3
3
3
3
3
3
3
3
3
3
3
3
3
3
3
3
3
3
3
3
3
3
3
3
3
3
3
3
3
3
3
3
3
3
3
3
3
3
3
3
3
3
3
3
3
3
3
3
3
3
3
3
3
3
3
3
3
3
3
3
3
3
3
3
3
3
3
3
3
3
3
3
3
3
3
3
3
3
3
3
3
3
3
3
3
3
3
3
3
3
3
3
3
3
3
3
3
3
3
3
3
3
3
3
3
3
3
3
3
3
3
3
3
3
3
3
3
3
3
3
3
3
3
3
3
3
3
3
3
3
3
3
3
3
3
3
3
3
3
3
3
3
3
3
POINT_DATA 251
FIELD FieldData 1
DISPLACEMENT 3 251  float
0.0000000e+00 0.0000000e+00 0.0000000e+00 
0.0000000e+00 0.0000000e+00 0.0000000e+00 
0.0000000e+00 -3.7728791e-04 0.0000000e+00 
0.0000000e+00 -7.5452949e-04 0.0000000e+00 
0.0000000e+00 -1.1316785e-03 0.0000000e+00 
0.0000000e+00 -1.5086883e-03 0.0000000e+00 
0.0000000e+00 -1.8855128e-03 0.0000000e+00 
0.0000000e+00 -2.2621057e-03 0.0000000e+00 
0.0000000e+00 -2.6384206e-03 0.0000000e+00 
0.0000000e+00 -3.0144111e-03 0.0000000e+00 
0.0000000e+00 -3.3900312e-03 0.0000000e+00 
0.0000000e+00 -3.7652340e-03 0.0000000e+00 
0.0000000e+00 -4.1399738e-03 0.0000000e+00 
0.0000000e+00 -4.5142043e-03 0.0000000e+00 
0.0000000e+00 -4.8878784e-03 0.0000000e+00 
0.0000000e+00 -5.2609509e-03 0.0000000e+00 
0.0000000e+00 -5.6333751e-03 0.0000000e+00 
0.0000000e+00 -6.0051046e-03 0.0000000e+00 
0.0000000e+00 -6.3760937e-03 0.0000000e+00 
0.0000000e+00 -6.7462954e-03 0.0000000e+00 
0.0000000e+00 -7.1156640e-03 0.0000000e+00 
0.0000000e+00 -7.4841534e-03 0.0000000e+00 
0.0000000e+00 -7.8517171e-03 0.0000000e+00 
0.0000000e+00 -8.2183089e-03 0.0000000e+00 
0.0000000e+00 -8.5838838e-03 0.0000000e+00 
0.0000000e+00 -8.9483941e-03 0.0000000e+00 
0.0000000e+00 -9.3117943e-03 0.0000000e+00 
0.0000000e+00 -9.6740397e-03 0.0000000e+00 
0.0000000e+00 -1.0035082e-02 0.0000000e+00 
0.0000000e+00 -1.0394876e-02 0.0000000e+00 
0.0000000e+00 -1.0753376e-02 0.0000000e+00 
0.0000000e+00 -1.1110537e-02 0.0000000e+00 
0.0000000e+00 -1.1466310e-02 0.0000000e+00 
0.0000000e+00 -1.1820653e-02 0.0000000e+00 
0.0000000e+00 -1.2173518e-02 0.0000000e+00 
0.0000000e+00 -1.2524858e-02 0.0000000e+00 
0.0000000e+00 -1.2874628e-02 0.0000000e+00 
0.0000000e+00 -1.3222785e-02 0.0000000e+00 
0.0000000e+00 -1.3569279e-02 0.0000000e+00 
0.0000000e+00 -1.3914066e-02 0.0000000e+00 
0.0000000e+00 -1.4257101e-02 0.0000000e+00 
0.0000000e+00 -1.4598338e-02 0.0000000e+00 
0.0000000e+00 -1.4937731e-02 0.0000000e+00 
0.0000000e+00 -1.5275232e-02 0.0000000e+00 
0.0000000e+00 -1.5610800e-02 0.0000000e+00 
0.0000000e+00 -1.5944386e-02 0.0000000e+00 
0.0000000e+00 -1.6275946e-02 0.0000000e+00 
0.0000000e+00 -1.6605433e-02 0.0000000e+00 
0.0000000e+00 -1.6932804e-02 0.0000000e+00 
0.0000000e+00 -1.7258011e-02 0.0000000e+00 
0.0000000e+00 -1.7581010e-02 0.0000000e+00 
0.0000000e+00 -1.7901754e-02 0.0000000e+00 
0.0000000e+00 -1.8220199e-02 0.0000000e+00 
0.0000000e+00 -1.8536301e-02 0.0000000e+00 
0.0000000e+00 -1.8850012e-02 0.0000000e+00 
0.0000000e+00 -1.9161288e-02 0.0000000e+00 
0.0000000e+00 -1.9470084e-02 0.0000000e+00 
0.0000000e+00 -1.9776354e-02 0.0000000e+00 
0.0000000e+00 -2.0080052e-02 0.0000000e+00 
0.0000000e+00 -2.0381136e-02 0.0000000e+00 
0.0000000e+00 -2.0679558e-02 0.0000000e+00 
0.0000000e+00 -2.0975275e-02 0.0000000e+00 
0.0000000e+00 -2.1268239e-02 0.0000000e+00 
0.0000000e+00 -2.1558410e-02 0.0000000e+00 
0.0000000e+00 -2.1845737e-02 0.0000000e+00 
0.0000000e+00 -2.2130180e-02 0.0000000e+00 
0.0000000e+00 -2.2411691e-02 0.0000000e+00 
0.0000000e+00 -2.2690227e-02 0.0000000e+00 
0.0000000e+00 -2.2965742e-02 0.0000000e+00 
0.0000000e+00 -2.3238191e-02 0.0000000e+00 
0.0000000e+00 -2.3507532e-02 0.0000000e+00 
0.0000000e+00 -2.3773719e-02 0.0000000e+00 
0.0000000e+00 -2.4036704e-02 0.0000000e+00 
0.0000000e+00 -2.4296446e-02 0.0000000e+00 
0.0000000e+00 -2.4552900e-02 0.0000000e+00 
0.0000000e+00 -2.4806021e-02 0.0000000e+00 
0.0000000e+00 -2.5055764e-02 0.0000000e+00 
0.0000000e+00 -2.5302086e-02 0.0000000e+00 
0.0000000e+00 -2.5544941e-02 0.0000000e+00 
0.0000000e+00 -2.5784288e-02 0.0000000e+00 
0.0000000e+00 -2.6020076e-02 0.0000000e+00 
0.0000000e+00 -2.6252268e-02 0.0000000e+00 
0.0000000e+00 -2.6480814e-02 0.0000000e+00 
0.0000000e+00 -2.6705673e-02 0.0000000e+00 
0.0000000e+00 -2.6926801e-02 0.0000000e+00 
0.0000000e+00 -2.7144153e-02 0.0000000e+00 
0.0000000e+00 -2.7357684e-02 0.0000000e+00 
0.0000000e+00 -2.7567351e-02 0.0000000e+00 
0.0000000e+00 -2.7773112e-02 0.0000000e+00 
0.0000000e+00 -2.7974918e-02 0.0000000e+00 
0.0000000e+00 -2.8172730e-02 0.0000000e+00 
0.0000000e+00 -2.8366502e-02 0.0000000e+00 
0.0000000e+00 -2.8556190e-02 0.0000000e+00 
0.0000000e+00 -2.8741753e-02 0.0000000e+00 
0.0000000e+00 -2.8923143e-02 0.0000000e+00 
0.0000000e+00 -2.9100318e-02 0.0000000e+00 
0.0000000e+00 -2.9273234e-02 0.0000000e+00 
0.0000000e+00 -2.9441850e-02 0.0000000e+00 
0.0000000e+00 -2.9606119e-02 0.0000000e+00 
0.0000000e+00 -2.9766001e-02 0.0000000e+00 
0.0000000e+00 -2.9921448e-02 0.0000000e+00 
0.0000000e+00 -3.0072421e-02 0.0000000e+00 
0.0000000e+00 -3.0218873e-02 0.0000000e+00 
0.0000000e+00 -3.0360764e-02 0.0000000e+00 
0.0000000e+00 -3.0498048e-02 0.0000000e+00 
0.0000000e+00 -3.0630682e-02 0.0000000e+00 
0.0000000e+00 -3.0758623e-02 0.0000000e+00 
0.0000000e+00 -3.0881830e-02 0.0000000e+00 
0.0000000e+00 -3.1000258e-02 0.0000000e+00 
0.0000000e+00 -3.1113863e-02 0.0000000e+00 
0.0000000e+00 -3.1222602e-02 0.0000000e+00 
0.0000000e+00 -3.1326436e-02 0.0000000e+00 
0.0000000e+00 -3.1425316e-02 0.0000000e+00 
0.0000000e+00 -3.1519204e-02 0.0000000e+00 
0.0000000e+00 -3.1608053e-02 0.0000000e+00 
0.0000000e+00 -3.1691823e-02 0.0000000e+00 
0.0000000e+00 -3.1770471e-02 0.0000000e+00 
0.0000000e+00 -3.1843953e-02 0.0000000e+00 
0.0000000e+00 -3.1912226e-02 0.0000000e+00 
0.0000000e+00 -3.1975247e-02 0.0000000e+00 
0.0000000e+00 -3.2032978e-02 0.0000000e+00 
0.0000000e+00 -3.2085370e-02 0.0000000e+00 
0.0000000e+00 -3.2132383e-02 0.0000000e+00 
0.0000000e+00 -3.2173976e-02 0.0000000e+00 
0.0000000e+00 -3.2210104e-02 0.0000000e+00 
0.0000000e+00 -3.2240726e-02 0.0000000e+00 
0.0000000e+00 -3.2265801e-02 0.0000000e+00 
0.0000000e+00 -3.2285281e-02 0.0000000e+00 
0.0000000e+00 -3.2299124e-02 0.0000000e+00 
0.0000000e+00 -3.2307297e-02 0.0000000e+00 
0.0000000e+00 -3.2309752e-02 0.0000000e+00 
0.0000000e+00 -3.2306448e-02 0.0000000e+00 
0.0000000e+00 -3.2297336e-02 0.0000000e+00 
0.0000000e+00 -3.2282371e-02 0.0000000e+00 
0.0000000e+00 -3.2261524e-02 0.0000000e+00 
0.0000000e+00 -3.2234754e-02 0.0000000e+00 
0.0000000e+00 -3.2202020e-02 0.0000000e+00 
0.0000000e+00 -3.2163266e-02 0.0000000e+00 
0.0000000e+00 -3.2118440e-02 0.0000000e+00 
0.0000000e+00 -3.2067515e-02 0.0000000e+00 
0.0000000e+00 -3.2010462e-02 0.0000000e+00 
0.0000000e+00 -3.1947274e-02 0.0000000e+00 
0.0000000e+00 -3.1877995e-02 0.0000000e+00 
0.0000000e+00 -3.1802684e-02 0.0000000e+00 
0.0000000e+00 -3.1721387e-02 0.0000000e+00 
0.0000000e+00 -3.1634167e-02 0.0000000e+00 
0.0000000e+00 -3.1541068e-02 0.0000000e+00 
0.0000000e+00 -3.1442158e-02 0.0000000e+00 
0.0000000e+00 -3.1337477e-02 0.0000000e+00 
0.0000000e+00 -3.1227091e-02 0.0000000e+00 
0.0000000e+00 -3.1111049e-02 0.0000000e+00 
0.0000000e+00 -3.0989407e-02 0.0000000e+00 
0.0000000e+00 -3.0862218e-02 0.0000000e+00 
0.0000000e+00 -3.0729538e-02 0.0000000e+00 
0.0000000e+00 -3.0591421e-02 0.0000000e+00 
0.0000000e+00 -3.0447921e-02 0.0000000e+00 
0.0000000e+00 -3.0299095e-02 0.0000000e+00 
0.0000000e+00 -3.0144995e-02 0.0000000e+00 
0.0000000e+00 -2.9985677e-02 0.0000000e+00 
0.0000000e+00 -2.9821197e-02 0.0000000e+00 
0.0000000e+00 -2.9651606e-02 0.0000000e+00 
0.0000000e+00 -2.9476963e-02 0.0000000e+00 
0.0000000e+00 -2.9297320e-02 0.0000000e+00 
0.0000000e+00 -2.9112734e-02 0.0000000e+00 
0.0000000e+00 -2.8923258e-02 0.0000000e+00 
0.0000000e+00 -2.8728947e-02 0.0000000e+00 
0.0000000e+00 -2.8529858e-02 0.0000000e+00 
0.0000000e+00 -2.8326044e-02 0.0000000e+00 
0.0000000e+00 -2.8117560e-02 0.0000000e+00 
0.0000000e+00 -2.7904460e-02 0.0000000e+00 
0.0000000e+00 -2.7686803e-02 0.0000000e+00 
0.0000000e+00 -2.7464639e-02 0.0000000e+00 
0.0000000e+00 -2.7238026e-02 0.0000000e+00 
0.0000000e+00 -2.7007021e-02 0.0000000e+00 
0.0000000e+00 -2.6771674e-02 0.0000000e+00 
0.0000000e+00 -2.6532043e-02 0.0000000e+00 
0.0000000e+00 -2.6288183e-02 0.0000000e+00 
0.0000000e+00 -2.6040150e-02 0.0000000e+00 
0.0000000e+00 -2.5787998e-02 0.0000000e+00 
0.0000000e+00 -2.5531782e-02 0.0000000e+00 
0.0000000e+00 -2.5271557e-02 0.0000000e+00 
0.0000000e+00 -2.5007380e-02 0.0000000e+00 
0.0000000e+00 -2.4739303e-02 0.0000000e+00 
0.0000000e+00 -2.4467384e-02 0.0000000e+00 
0.0000000e+00 -2.4191679e-02 0.0000000e+00 
0.0000000e+00 -2.3912240e-02 0.0000000e+00 
0.0000000e+00 -2.3629125e-02 0.0000000e+00 
0.0000000e+00 -2.3342388e-02 0.0000000e+00 
0.0000000e+00 -2.3052085e-02 0.0000000e+00 
0.0000000e+00 -2.2758272e-02 0.0000000e+00 
0.0000000e+00 -2.2461001e-02 0.0000000e+00 
0.0000000e+00 -2.2160333e-02 0.0000000e+00 
0.0000000e+00 -2.1856317e-02 0.0000000e+00 
0.0000000e+00 -2.1549013e-02 0.0000000e+00 
0.0000000e+00 -2.1238476e-02 0.0000000e+00 
0.0000000e+00 -2.0924758e-02 0.0000000e+00 
0.0000000e+00 -2.0607920e-02 0.0000000e+00 
0.0000000e+00 -2.0288013e-02 0.0000000e+00 
0.0000000e+00 -1.9965094e-02 0.0000000e+00 
0.0000000e+00 -1.9639216e-02 0.0000000e+00 
0.0000000e+00 -1.9310439e-02 0.0000000e+00 
0.0000000e+00 -1.8978817e-02 0.0000000e+00 
0.0000000e+00 -1.8644404e-02 0.0000000e+00 
0.0000000e+00 -1.8307257e-02 0.0000000e+00 
0.0000000e+00 -1.7967431e-02 0.0000000e+00 
0.0000000e+00 -1.7624980e-02 0.0000000e+00 
0.0000000e+00 -1.7279962e-02 0.0000000e+00 
0.0000000e+00 -1.6932433e-02 0.0000000e+00 
0.0000000e+00 -1.6582446e-02 0.0000000e+00 
0.0000000e+00 -1.6230058e-02 0.0000000e+00 
0.0000000e+00 -1.5875326e-02 0.0000000e+00 
0.0000000e+00 -1.5518303e-02 0.0000000e+00 
0.0000000e+00 -1.5159046e-02 0.0000000e+00 
0.0000000e+00 -1.4797611e-02 0.0000000e+00 
0.0000000e+00 -1.4434054e-02 0.0000000e+00 
0.0000000e+00 -1.4068428e-02 0.0000000e+00 
0.0000000e+00 -1.3700793e-02 0.0000000e+00 
0.0000000e+00 -1.3331201e-02 0.0000000e+00 
0.0000000e+00 -1.2959709e-02 0.0000000e+00 
0.0000000e+00 -1.2586373e-02 0.0000000e+00 
0.0000000e+00 -1.2211249e-02 0.0000000e+00 
0.0000000e+00 -1.1834392e-02 0.0000000e+00 
0.0000000e+00 -1.1455859e-02 0.0000000e+00 
0.0000000e+00 -1.1075704e-02 0.0000000e+00 
0.0000000e+00 -1.0693984e-02 0.0000000e+00 
0.0000000e+00 -1.0310755e-02 0.0000000e+00 
0.0000000e+00 -9.9260723e-03 0.0000000e+00 
0.0000000e+00 -9.5399916e-03 0.0000000e+00 
0.0000000e+00 -9.1525689e-03 0.0000000e+00 
0.0000000e+00 -8.7638600e-03 0.0000000e+00 
0.0000000e+00 -8.3739217e-03 0.0000000e+00 
0.0000000e+00 -7.9828082e-03 0.0000000e+00 
0.0000000e+00 -7.5905761e-03 0.0000000e+00 
0.0000000e+00 -7.1972813e-03 0.0000000e+00 
0.0000000e+00 -6.8029799e-03 0.0000000e+00 
0.0000000e+00 -6.4077275e-03 0.0000000e+00 
0.0000000e+00 -6.0115806e-03 0.0000000e+00 
0.0000000e+00 -5.6145941e-03 0.0000000e+00 
0.0000000e+00 -5.2168244e-03 0.0000000e+00 
0.0000000e+00 -4.8183277e-03 0.0000000e+00 
0.0000000e+00 -4.4191596e-03 0.0000000e+00 
0.0000000e+00 -4.0193759e-03 0.0000000e+00 
0.0000000e+00 -3.6190331e-03 0.0000000e+00 
0.0000000e+00 -3.2181866e-03 0.0000000e+00 
0.0000000e+00 -2.8168925e-03 0.0000000e+00 
0.0000000e+00 -2.4152065e-03 0.0000000e+00 
0.0000000e+00 -2.0131851e-03 0.0000000e+00 
0.0000000e+00 -1.6108837e-03 0.0000000e+00 
0.0000000e+00 -1.2083587e-03 0.0000000e+00 
0.0000000e+00 -8.0566568e-04 0.0000000e+00 
0.0000000e+00 -4.0286084e-04 0.0000000e+00 
CELL_DATA 250
FIELD FieldData 0
